 vasp.5.4.4.18Apr17 -6-g9f103f2a35 (build Oct 26 2020 23:09:38) gamma-only       
  
 executed on             LinuxIFC date 2022.08.06  19:10:17
 running on   44 total cores
 distrk:  each k-point on   44 cores,    1 groups
 distr:  one band on NCORES_PER_BAND=  44 cores,    1 groups


--------------------------------------------------------------------------------------------------------


 INCAR:
 POTCAR:    PAW_PBE B 06Sep2000                   
 POTCAR:    PAW_PBE N 08Apr2002                   
 POTCAR:    PAW_PBE C 08Apr2002                   

 ----------------------------------------------------------------------------- 
|                                                                             |
|           W    W    AA    RRRRR   N    N  II  N    N   GGGG   !!!           |
|           W    W   A  A   R    R  NN   N  II  NN   N  G    G  !!!           |
|           W    W  A    A  R    R  N N  N  II  N N  N  G       !!!           |
|           W WW W  AAAAAA  RRRRR   N  N N  II  N  N N  G  GGG   !            |
|           WW  WW  A    A  R   R   N   NN  II  N   NN  G    G                |
|           W    W  A    A  R    R  N    N  II  N    N   GGGG   !!!           |
|                                                                             |
|      For optimal performance we recommend to set                            |
|        NCORE= 4 - approx SQRT( number of cores)                             |
|      NCORE specifies how many cores store one orbital (NPAR=cpu/NCORE).     |
|      This setting can  greatly improve the performance of VASP for DFT.     |
|      The default,   NCORE=1            might be grossly inefficient         |
|      on modern multi-core architectures or massively parallel machines.     |
|      Do your own testing !!!!                                               |
|      Unfortunately you need to use the default for GW and RPA calculations. |
|      (for HF NCORE is supported but not extensively tested yet)             |
|                                                                             |
 ----------------------------------------------------------------------------- 

 POTCAR:    PAW_PBE B 06Sep2000                   
   VRHFIN =B: s2p1                                                              
   LEXCH  = PE                                                                  
   EATOM  =    71.1703 eV,    5.2309 Ry                                         
                                                                                
   TITEL  = PAW_PBE B 06Sep2000                                                 
   LULTRA =        F    use ultrasoft PP ?                                      
   IUNSCR =        1    unscreen: 0-lin 1-nonlin 2-no                           
   RPACOR =    1.200    partial core radius                                     
   POMASS =   10.811; ZVAL   =    3.000    mass and valenz                      
   RCORE  =    1.700    outmost cutoff radius                                   
   RWIGS  =    1.710; RWIGS  =    0.905    wigner-seitz radius (au A)           
   ENMAX  =  318.614; ENMIN  =  238.960 eV                                      
   ICORE  =        2    local potential                                         
   LCOR   =        T    correct aug charges                                     
   LPAW   =        T    paw PP                                                  
   EAUG   =  535.514                                                            
   DEXC   =    0.000                                                            
   RMAX   =    1.732    core radius for proj-oper                               
   RAUG   =    1.300    factor for augmentation sphere                          
   RDEP   =    1.757    radius for radial grids                                 
   RDEPT  =    1.436    core radius for aug-charge                              
                                                                                
   Atomic configuration                                                         
    4 entries                                                                   
     n  l   j            E        occ.                                          
     1  0  0.50      -180.5896   2.0000                                         
     2  0  0.50        -9.4431   2.0000                                         
     2  1  0.50        -3.6068   1.0000                                         
     3  2  1.50        -4.0817   0.0000                                         
   Description                                                                  
     l       E           TYP  RCUT    TYP  RCUT                                 
     0     -9.4430752     23  1.500                                             
     0      0.8675899     23  1.500                                             
     1     -3.6067955     23  1.700                                             
     1      6.1086146     23  1.700                                             
     2     -4.0817478      7  1.700                                             
  local pseudopotential read in
  partial core-charges read in
  partial kinetic energy density read in
  atomic valenz-charges read in
  non local Contribution for L=           0  read in
    real space projection operators read in
  non local Contribution for L=           0  read in
    real space projection operators read in
  non local Contribution for L=           1  read in
    real space projection operators read in
  non local Contribution for L=           1  read in
    real space projection operators read in
    PAW grid and wavefunctions read in
 
   number of l-projection  operators is LMAX  =           4
   number of lm-projection operators is LMMAX =           8
 
 POTCAR:    PAW_PBE N 08Apr2002                   
   VRHFIN =N: s2p3                                                              
   LEXCH  = PE                                                                  
   EATOM  =   264.5486 eV,   19.4438 Ry                                         
                                                                                
   TITEL  = PAW_PBE N 08Apr2002                                                 
   LULTRA =        F    use ultrasoft PP ?                                      
   IUNSCR =        1    unscreen: 0-lin 1-nonlin 2-no                           
   RPACOR =    1.200    partial core radius                                     
   POMASS =   14.001; ZVAL   =    5.000    mass and valenz                      
   RCORE  =    1.500    outmost cutoff radius                                   
   RWIGS  =    1.400; RWIGS  =    0.741    wigner-seitz radius (au A)           
   ENMAX  =  400.000; ENMIN  =  300.000 eV                                      
   ICORE  =        2    local potential                                         
   LCOR   =        T    correct aug charges                                     
   LPAW   =        T    paw PP                                                  
   EAUG   =  627.112                                                            
   DEXC   =    0.000                                                            
   RMAX   =    1.529    core radius for proj-oper                               
   RAUG   =    1.300    factor for augmentation sphere                          
   RDEP   =    1.514    radius for radial grids                                 
   RDEPT  =    1.338    core radius for aug-charge                              
                                                                                
   Atomic configuration                                                         
    4 entries                                                                   
     n  l   j            E        occ.                                          
     1  0  0.50      -384.7179   2.0000                                         
     2  0  0.50       -18.5828   2.0000                                         
     2  1  0.50        -7.0898   3.0000                                         
     3  2  1.50        -6.8029   0.0000                                         
   Description                                                                  
     l       E           TYP  RCUT    TYP  RCUT                                 
     0    -18.5828119     23  1.200                                             
     0    -13.5018863     23  1.200                                             
     1     -7.0897853     23  1.500                                             
     1      9.5240782     23  1.500                                             
     2     -6.8029130      7  1.500                                             
  local pseudopotential read in
  partial core-charges read in
  partial kinetic energy density read in
  atomic valenz-charges read in
  non local Contribution for L=           0  read in
    real space projection operators read in
  non local Contribution for L=           0  read in
    real space projection operators read in
  non local Contribution for L=           1  read in
    real space projection operators read in
  non local Contribution for L=           1  read in
    real space projection operators read in
    PAW grid and wavefunctions read in
 
   number of l-projection  operators is LMAX  =           4
   number of lm-projection operators is LMMAX =           8
 
 POTCAR:    PAW_PBE C 08Apr2002                   
   VRHFIN =C: s2p2                                                              
   LEXCH  = PE                                                                  
   EATOM  =   147.1560 eV,   10.8157 Ry                                         
                                                                                
   TITEL  = PAW_PBE C 08Apr2002                                                 
   LULTRA =        F    use ultrasoft PP ?                                      
   IUNSCR =        1    unscreen: 0-lin 1-nonlin 2-no                           
   RPACOR =    1.200    partial core radius                                     
   POMASS =   12.011; ZVAL   =    4.000    mass and valenz                      
   RCORE  =    1.500    outmost cutoff radius                                   
   RWIGS  =    1.630; RWIGS  =    0.863    wigner-seitz radius (au A)           
   ENMAX  =  400.000; ENMIN  =  300.000 eV                                      
   ICORE  =        2    local potential                                         
   LCOR   =        T    correct aug charges                                     
   LPAW   =        T    paw PP                                                  
   EAUG   =  644.873                                                            
   DEXC   =    0.000                                                            
   RMAX   =    1.529    core radius for proj-oper                               
   RAUG   =    1.300    factor for augmentation sphere                          
   RDEP   =    1.501    radius for radial grids                                 
   RDEPT  =    1.300    core radius for aug-charge                              
                                                                                
   Atomic configuration                                                         
    4 entries                                                                   
     n  l   j            E        occ.                                          
     1  0  0.50      -273.3789   2.0000                                         
     2  0  0.50       -13.7508   2.0000                                         
     2  1  0.50        -5.2854   2.0000                                         
     3  2  1.50        -5.4423   0.0000                                         
   Description                                                                  
     l       E           TYP  RCUT    TYP  RCUT                                 
     0    -13.7508458     23  1.200                                             
     0     -8.2022199     23  1.200                                             
     1     -5.2854383     23  1.500                                             
     1     34.0145650     23  1.500                                             
     2     -5.4423304      7  1.500                                             
  local pseudopotential read in
  partial core-charges read in
  partial kinetic energy density read in
  atomic valenz-charges read in
  non local Contribution for L=           0  read in
    real space projection operators read in
  non local Contribution for L=           0  read in
    real space projection operators read in
  non local Contribution for L=           1  read in
    real space projection operators read in
  non local Contribution for L=           1  read in
    real space projection operators read in
    PAW grid and wavefunctions read in
 
   number of l-projection  operators is LMAX  =           4
   number of lm-projection operators is LMMAX =           8
 
 Optimization of the real space projectors (new method)

 maximal supplied QI-value         = 22.11
 optimisation between [QCUT,QGAM] = [ 10.17, 20.34] = [ 28.97,115.86] Ry 
 Optimized for a Real-space Cutoff    1.19 Angstroem

   l    n(q)    QCUT    max X(q) W(low)/X(q) W(high)/X(q)  e(spline) 
   0      7    10.171    53.033    0.46E-03    0.34E-03    0.19E-06
   0      7    10.171    34.740    0.46E-03    0.33E-03    0.19E-06
   1      7    10.171    30.949    0.41E-03    0.76E-03    0.13E-06
   1      7    10.171    19.518    0.38E-03    0.69E-03    0.12E-06
 Optimization of the real space projectors (new method)

 maximal supplied QI-value         = 25.13
 optimisation between [QCUT,QGAM] = [ 10.05, 20.36] = [ 28.30,116.06] Ry 
 Optimized for a Real-space Cutoff    1.65 Angstroem

   l    n(q)    QCUT    max X(q) W(low)/X(q) W(high)/X(q)  e(spline) 
   0     10    10.053    79.467    0.76E-04    0.72E-04    0.56E-06
   0     10    10.053    66.151    0.76E-04    0.72E-04    0.55E-06
   1     10    10.053     8.350    0.25E-03    0.92E-03    0.41E-05
   1     10    10.053     5.531    0.27E-03    0.10E-02    0.45E-05
 Optimization of the real space projectors (new method)

 maximal supplied QI-value         = 25.13
 optimisation between [QCUT,QGAM] = [ 10.05, 20.36] = [ 28.30,116.06] Ry 
 Optimized for a Real-space Cutoff    1.30 Angstroem

   l    n(q)    QCUT    max X(q) W(low)/X(q) W(high)/X(q)  e(spline) 
   0      8    10.053   115.676    0.49E-03    0.72E-03    0.18E-06
   0      8    10.053    87.132    0.49E-03    0.71E-03    0.18E-06
   1      7    10.053     4.429    0.32E-03    0.31E-03    0.18E-06
   1      7    10.053     2.733    0.23E-03    0.19E-03    0.20E-06
  PAW_PBE B 06Sep2000                   :
 energy of atom  1       EATOM=  -71.1703
 kinetic energy error for atom=    0.0020 (will be added to EATOM!!)
  PAW_PBE N 08Apr2002                   :
 energy of atom  2       EATOM= -264.5486
 kinetic energy error for atom=    0.0736 (will be added to EATOM!!)
  PAW_PBE C 08Apr2002                   :
 energy of atom  3       EATOM= -147.1560
 kinetic energy error for atom=    0.0288 (will be added to EATOM!!)
 
 
 POSCAR: poscar.py                               
  positions in direct lattice
  velocities in cartesian coordinates
 exchange correlation table for  LEXCH =        8
   RHO(1)=    0.500       N(1)  =     2000
   RHO(2)=  100.500       N(2)  =     4000
 


--------------------------------------------------------------------------------------------------------


 ion  position               nearest neighbor table
   1  0.045  0.097  0.000-  54 1.44  55 1.44  97 1.50
   2  0.193  0.098  0.000-  50 1.43  56 1.45  97 1.49
   3  0.333  0.098  0.000-  50 1.43  57 1.45  98 1.49
   4  0.480  0.097  0.000-  51 1.44  58 1.44  98 1.50
   5  0.620  0.096  0.000-  51 1.43  52 1.44  59 1.45
   6  0.762  0.095  0.000-  52 1.44  53 1.44  60 1.44
   7  0.904  0.096  0.000-  54 1.43  53 1.44  61 1.45
   8  0.047  0.239  0.000-  55 1.43  62 1.44  61 1.44
   9  0.191  0.239  0.000-  56 1.44  63 1.44  55 1.45
  10  0.335  0.241  0.000-  64 1.44  56 1.44  57 1.44
  11  0.477  0.239  0.000-  57 1.44  65 1.44  58 1.45
  12  0.621  0.239  0.000-  58 1.43  66 1.44  59 1.44
  13  0.762  0.239  0.000-  59 1.44  60 1.44  67 1.44
  14  0.905  0.239  0.000-  61 1.44  60 1.44  68 1.44
  15  0.048  0.381  0.000-  62 1.44  69 1.44  68 1.44
  16  0.190  0.381  0.000-  70 1.44  63 1.44  62 1.44
  17  0.334  0.382  0.000-  64 1.44  71 1.44  63 1.45
  18  0.477  0.382  0.000-  64 1.44  72 1.44  65 1.45
  19  0.620  0.381  0.000-  73 1.44  65 1.44  66 1.44
  20  0.762  0.381  0.000-  66 1.44  74 1.44  67 1.44
  21  0.905  0.381  0.000-  75 1.44  67 1.44  68 1.44
  22  0.047  0.524  0.000-  76 1.44  69 1.44  75 1.44
  23  0.190  0.524  0.000-  77 1.44  70 1.44  69 1.44
  24  0.333  0.524  0.000-  71 1.44  78 1.44  70 1.44
  25  0.476  0.524  0.000-  79 1.44  71 1.44  72 1.44
  26  0.619  0.524  0.000-  72 1.44  80 1.44  73 1.44
  27  0.762  0.524  0.000-  81 1.44  73 1.44  74 1.44
  28  0.905  0.524  0.000-  82 1.44  74 1.44  75 1.44
  29  0.047  0.665  0.000-  83 1.43  82 1.44  76 1.44
  30  0.190  0.666  0.000-  84 1.44  77 1.44  76 1.44
  31  0.333  0.666  0.000-  85 1.44  78 1.44  77 1.44
  32  0.476  0.667  0.000-  79 1.44  78 1.44  86 1.44
  33  0.619  0.667  0.000-  79 1.44  80 1.44  87 1.44
  34  0.761  0.666  0.000-  88 1.44  80 1.44  81 1.44
  35  0.904  0.666  0.000-  89 1.44  81 1.44  82 1.44
  36  0.047  0.808  0.000-  90 1.43  83 1.44  89 1.45
  37  0.189  0.808  0.000-  91 1.43  83 1.44  84 1.45
  38  0.333  0.808  0.000-  92 1.44  85 1.44  84 1.44
  39  0.476  0.809  0.000-  86 1.44  85 1.44  93 1.45
  40  0.619  0.809  0.000-  86 1.44  87 1.44  94 1.44
  41  0.762  0.809  0.000-  87 1.44  88 1.44  95 1.45
  42  0.903  0.808  0.000-  96 1.44  88 1.44  89 1.44
  43  0.046  0.949  0.000-  96 1.44  90 1.44  97 1.50
  44  0.190  0.952  0.000-  90 1.45  91 1.45  50 1.47
  45  0.331  0.949  0.000-  92 1.44  91 1.44  98 1.50
  46  0.476  0.952  0.000-  93 1.44  51 1.45  92 1.45
  47  0.619  0.952  0.000-  94 1.44  52 1.44  93 1.45
  48  0.762  0.952  0.000-  94 1.44  53 1.44  95 1.45
  49  0.904  0.952  0.000-  95 1.44  54 1.45  96 1.45
  50  0.239  0.049  0.000-   3 1.43   2 1.43  44 1.47
  51  0.526  0.048  0.000-   5 1.43   4 1.44  46 1.45
  52  0.667  0.048  0.000-   6 1.44   5 1.44  47 1.44
  53  0.809  0.048  0.000-   6 1.44   7 1.44  48 1.44
  54  0.951  0.048  0.000-   7 1.43   1 1.44  49 1.45
  55  0.095  0.192  0.000-   8 1.43   1 1.44   9 1.45
  56  0.240  0.193  0.000-  10 1.44   9 1.44   2 1.45
  57  0.382  0.193  0.000-  10 1.44  11 1.44   3 1.45
  58  0.526  0.192  0.000-  12 1.43   4 1.44  11 1.45
  59  0.667  0.191  0.000-  13 1.44  12 1.44   5 1.45
  60  0.810  0.191  0.000-  14 1.44  13 1.44   6 1.44
  61  0.952  0.191  0.000-  14 1.44   8 1.44   7 1.45
  62  0.095  0.334  0.000-  15 1.44   8 1.44  16 1.44
  63  0.238  0.334  0.000-  16 1.44   9 1.44  17 1.45
  64  0.382  0.335  0.000-  10 1.44  18 1.44  17 1.44
  65  0.524  0.334  0.000-  19 1.44  11 1.44  18 1.45
  66  0.668  0.334  0.000-  20 1.44  12 1.44  19 1.44
  67  0.810  0.334  0.000-  21 1.44  13 1.44  20 1.44
  68  0.952  0.334  0.000-  21 1.44  14 1.44  15 1.44
  69  0.095  0.476  0.000-  15 1.44  22 1.44  23 1.44
  70  0.238  0.476  0.000-  16 1.44  23 1.44  24 1.44
  71  0.381  0.477  0.000-  17 1.44  24 1.44  25 1.44
  72  0.524  0.477  0.000-  18 1.44  26 1.44  25 1.44
  73  0.667  0.476  0.000-  19 1.44  27 1.44  26 1.44
  74  0.810  0.476  0.000-  20 1.44  28 1.44  27 1.44
  75  0.952  0.476  0.000-  21 1.44  22 1.44  28 1.44
  76  0.095  0.618  0.000-  22 1.44  29 1.44  30 1.44
  77  0.238  0.619  0.000-  23 1.44  30 1.44  31 1.44
  78  0.381  0.619  0.000-  31 1.44  24 1.44  32 1.44
  79  0.524  0.619  0.000-  33 1.44  32 1.44  25 1.44
  80  0.666  0.619  0.000-  34 1.44  26 1.44  33 1.44
  81  0.809  0.619  0.000-  27 1.44  35 1.44  34 1.44
  82  0.952  0.618  0.000-  28 1.44  29 1.44  35 1.44
  83  0.094  0.760  0.000-  29 1.43  37 1.44  36 1.44
  84  0.238  0.761  0.000-  30 1.44  38 1.44  37 1.45
  85  0.381  0.761  0.000-  38 1.44  31 1.44  39 1.44
  86  0.524  0.762  0.000-  39 1.44  40 1.44  32 1.44
  87  0.667  0.762  0.000-  41 1.44  40 1.44  33 1.44
  88  0.809  0.761  0.000-  42 1.44  34 1.44  41 1.44
  89  0.952  0.761  0.000-  35 1.44  42 1.44  36 1.45
  90  0.095  0.902  0.000-  36 1.43  43 1.44  44 1.45
  91  0.236  0.902  0.000-  37 1.43  45 1.44  44 1.45
  92  0.380  0.903  0.000-  45 1.44  38 1.44  46 1.45
  93  0.524  0.905  0.000-  46 1.44  47 1.45  39 1.45
  94  0.667  0.905  0.000-  48 1.44  47 1.44  40 1.44
  95  0.809  0.905  0.000-  49 1.44  48 1.45  41 1.45
  96  0.951  0.903  0.000-  43 1.44  42 1.44  49 1.45
  97  0.095  0.048  0.000-   2 1.49   1 1.50  43 1.50
  98  0.382  0.048  0.000-   3 1.49   4 1.50  45 1.50
 
  LATTYP: Found a hexagonal cell.
 ALAT       =    17.5069440000
 C/A-ratio  =     0.9139230696
  
  Lattice vectors:
  
 A1 = (   8.7534720000, -15.1614582466,   0.0000000000)
 A2 = (   8.7534720000,  15.1614582466,   0.0000000000)
 A3 = (   0.0000000000,   0.0000000000,  16.0000000000)


Analysis of symmetry for initial positions (statically):
=====================================================================
 Subroutine PRICEL returns:
 Original cell was already a primitive cell.
 

 Routine SETGRP: Setting up the symmetry group for a 
 hexagonal supercell.


 Subroutine GETGRP returns: Found  4 space group operations
 (whereof  2 operations were pure point group operations)
 out of a pool of 24 trial point group operations.


The static configuration has the point symmetry C_1h.
 The point group associated with its full space group is C_2v.


Analysis of symmetry for dynamics (positions and initial velocities):
=====================================================================
 Subroutine PRICEL returns:
 Original cell was already a primitive cell.
 

 Routine SETGRP: Setting up the symmetry group for a 
 hexagonal supercell.


 Subroutine GETGRP returns: Found  4 space group operations
 (whereof  2 operations were pure point group operations)
 out of a pool of 24 trial point group operations.


The dynamic configuration has the point symmetry C_1h.
 The point group associated with its full space group is C_2v.


Analysis of structural, dynamic, and magnetic symmetry:
=====================================================================
 Subroutine PRICEL returns:
 Original cell was already a primitive cell.
 

 Routine SETGRP: Setting up the symmetry group for a 
 hexagonal supercell.


 Subroutine GETGRP returns: Found  4 space group operations
 (whereof  2 operations were pure point group operations)
 out of a pool of 24 trial point group operations.


The magnetic configuration has the point symmetry C_1h.
 The point group associated with its full space group is C_2v.


 Subroutine INISYM returns: Found  4 space group operations
 (whereof  2 operations are pure point group operations),
 and found     1 'primitive' translations

 
 
 KPOINTS: Automatic mesh                          

Automatic generation of k-mesh.
Space group operators:
 irot       det(A)        alpha          n_x          n_y          n_z        tau_x        tau_y        tau_z
    1     1.000000     0.000000     1.000000     0.000000     0.000000     0.000000     0.000000     0.000000
    2    -1.000000   180.000000     0.000000     0.000000     1.000000     0.000000     0.000000     0.000000
    3    -1.000000   180.000000     0.500000    -0.866025     0.000000     0.428571     0.000000     0.000000
    4     1.000000   180.000000     0.866025     0.500000     0.000000     0.428571     0.000000     0.000000
 
 Subroutine IBZKPT returns following result:
 ===========================================
 
 Found      1 irreducible k-points:
 
 Following reciprocal coordinates:
            Coordinates               Weight
  0.000000  0.000000  0.000000      1.000000
 
 Following cartesian coordinates:
            Coordinates               Weight
  0.000000  0.000000  0.000000      1.000000
 


--------------------------------------------------------------------------------------------------------




 Dimension of arrays:
   k-points           NKPTS =      1   k-points in BZ     NKDIM =      1   number of bands    NBANDS=    245
   number of dos      NEDOS =    301   number of ions     NIONS =     98
   non local maximal  LDIM  =      4   non local SUM 2l+1 LMDIM =      8
   total plane-waves  NPLWV = 648000
   max r-space proj   IRMAX =   2912   max aug-charges    IRDMAX=  19233
   dimension x,y,z NGX =    90 NGY =   90 NGZ =   80
   dimension x,y,z NGXF=   180 NGYF=  180 NGZF=  160
   support grid    NGXF=   360 NGYF=  360 NGZF=  320
   ions per type =              49  47   2
   NGX,Y,Z   is equivalent  to a cutoff of   8.55,  8.55,  8.31 a.u.
   NGXF,Y,Z  is equivalent  to a cutoff of  17.09, 17.09, 16.62 a.u.

 SYSTEM =  unknown system                          
 POSCAR =  poscar.py                               

 Startparameter for this run:
   NWRITE =      2    write-flag & timer
   PREC   = normal    normal or accurate (medium, high low for compatibility)
   ISTART =      0    job   : 0-new  1-cont  2-samecut
   ICHARG =      1    charge: 1-file 2-atom 10-const
   ISPIN  =      2    spin polarized calculation?
   LNONCOLLINEAR =      F non collinear calculations
   LSORBIT =      F    spin-orbit coupling
   INIWAV =      1    electr: 0-lowe 1-rand  2-diag
   LASPH  =      F    aspherical Exc in radial PAW
   METAGGA=      F    non-selfconsistent MetaGGA calc.

 Electronic Relaxation 1
   ENCUT  =  400.0 eV  29.40 Ry    5.42 a.u.  28.55 28.55 26.09*2*pi/ulx,y,z
   ENINI  =  400.0     initial cutoff
   ENAUG  =  644.9 eV  augmentation charge cutoff
   NELM   =     60;   NELMIN=  3; NELMDL= -5     # of ELM steps 
   EDIFF  = 0.1E-05   stopping-criterion for ELM
   LREAL  =      T    real-space projection
   NLSPLINE    = F    spline interpolate recip. space projectors
   LCOMPAT=      F    compatible to vasp.4.4
   GGA_COMPAT  = T    GGA compatible to vasp.4.4-vasp.4.6
   LMAXPAW     = -100 max onsite density
   LMAXMIX     =    2 max onsite mixed and CHGCAR
   VOSKOWN=      0    Vosko Wilk Nusair interpolation
   ROPT   =   -0.00050  -0.00050  -0.00050
 Ionic relaxation
   EDIFFG = -.1E-01   stopping-criterion for IOM
   NSW    =     30    number of steps for IOM
   NBLOCK =      1;   KBLOCK =     30    inner block; outer block 
   IBRION =      2    ionic relax: 0-MD 1-quasi-New 2-CG
   NFREE  =      1    steps in history (QN), initial steepest desc. (CG)
   ISIF   =      2    stress and relaxation
   IWAVPR =     11    prediction:  0-non 1-charg 2-wave 3-comb
   ISYM   =      1    0-nonsym 1-usesym 2-fastsym
   LCORR  =      T    Harris-Foulkes like correction to forces

   POTIM  = 0.5000    time-step for ionic-motion
   TEIN   =    0.0    initial temperature
   TEBEG  =    0.0;   TEEND  =   0.0 temperature during run
   SMASS  =  -3.00    Nose mass-parameter (am)
   estimated Nose-frequenzy (Omega)   =  0.10E-29 period in steps =****** mass=  -0.700E-26a.u.
   SCALEE = 1.0000    scale energy and forces
   NPACO  =    256;   APACO  = 16.0  distance and # of slots for P.C.
   PSTRESS=    0.0 pullay stress

  Mass of Ions in am
   POMASS =  10.81 14.00 12.01
  Ionic Valenz
   ZVAL   =   3.00  5.00  4.00
  Atomic Wigner-Seitz radii
   RWIGS  =  -1.00 -1.00 -1.00
  virtual crystal weights 
   VCA    =   1.00  1.00  1.00
   NELECT =     390.0000    total number of electrons
   NUPDOWN=       0.0000    fix difference up-down

 DOS related values:
   EMIN   =  10.00;   EMAX   =-10.00  energy-range for DOS
   EFERMI =   0.00
   ISMEAR =    -1;   SIGMA  =   0.01  broadening in eV -4-tet -1-fermi 0-gaus

 Electronic relaxation 2 (details)
   IALGO  =     68    algorithm
   LDIAG  =      T    sub-space diagonalisation (order eigenvalues)
   LSUBROT=      F    optimize rotation matrix (better conditioning)
   TURBO    =      0    0=normal 1=particle mesh
   IRESTART =      0    0=no restart 2=restart with 2 vectors
   NREBOOT  =      0    no. of reboots
   NMIN     =      0    reboot dimension
   EREF     =   0.00    reference energy to select bands
   IMIX   =      4    mixing-type and parameters
     AMIX     =   0.40;   BMIX     =  1.00
     AMIX_MAG =   1.60;   BMIX_MAG =  1.00
     AMIN     =   0.10
     WC   =   100.;   INIMIX=   1;  MIXPRE=   1;  MAXMIX= -45

 Intra band minimization:
   WEIMIN = 0.0010     energy-eigenvalue tresh-hold
   EBREAK =  0.10E-08  absolut break condition
   DEPER  =   0.30     relativ break condition  

   TIME   =   0.40     timestep for ELM

  volume/ion in A,a.u.               =      43.34       292.44
  Fermi-wavevector in a.u.,A,eV,Ry     =   0.738594  1.395741  7.422271  0.545521
  Thomas-Fermi vector in A             =   1.832554
 
 Write flags
   LWAVE        =      T    write WAVECAR
   LDOWNSAMPLE  =      F    k-point downsampling of WAVECAR
   LCHARG       =      F    write CHGCAR
   LVTOT        =      F    write LOCPOT, total local potential
   LVHAR        =      F    write LOCPOT, Hartree potential only
   LELF         =      F    write electronic localiz. function (ELF)
   LORBIT       =     11    0 simple, 1 ext, 2 COOP (PROOUT), +10 PAW based schemes


 Dipole corrections
   LMONO  =      F    monopole corrections only (constant potential shift)
   LDIPOL =      F    correct potential (dipole corrections)
   IDIPOL =      0    1-x, 2-y, 3-z, 4-all directions 
   EPSILON=  1.0000000 bulk dielectric constant

 Exchange correlation treatment:
   GGA     =    --    GGA type
   LEXCH   =     8    internal setting for exchange type
   VOSKOWN=      0    Vosko Wilk Nusair interpolation
   LHFCALC =     F    Hartree Fock is set to
   LHFONE  =     F    Hartree Fock one center treatment
   AEXX    =    0.0000 exact exchange contribution

 Linear response parameters
   LEPSILON=     F    determine dielectric tensor
   LRPA    =     F    only Hartree local field effects (RPA)
   LNABLA  =     F    use nabla operator in PAW spheres
   LVEL    =     F    velocity operator in full k-point grid
   LINTERFAST=   F  fast interpolation
   KINTER  =     0    interpolate to denser k-point grid
   CSHIFT  =0.1000    complex shift for real part using Kramers Kronig
   OMEGAMAX=  -1.0    maximum frequency
   DEG_THRESHOLD= 0.2000000E-02 threshold for treating states as degnerate
   RTIME   =   -0.100 relaxation time in fs
  (WPLASMAI=    0.000 imaginary part of plasma frequency in eV, 0.658/RTIME)
   DFIELD  = 0.0000000 0.0000000 0.0000000 field for delta impulse in time
 
 Orbital magnetization related:
   ORBITALMAG=     F  switch on orbital magnetization
   LCHIMAG   =     F  perturbation theory with respect to B field
   DQ        =  0.001000  dq finite difference perturbation B field
   LLRAUG    =     F  two centre corrections for induced B field



--------------------------------------------------------------------------------------------------------


 conjugate gradient relaxation of ions
 charge density and potential will be updated during run
 spin polarized calculation
 RMM-DIIS sequential band-by-band and
  variant of blocked Davidson during initial phase
 perform sub-space diagonalisation
    before iterative eigenvector-optimisation
 modified Broyden-mixing scheme, WC =      100.0
 initial mixing is a Kerker type mixing with AMIX =  0.4000 and BMIX =      1.0000
 Hartree-type preconditioning will be used
 using additional bands           50
 real space projection scheme for non local part
 use partial core corrections
 calculate Harris-corrections to forces 
   (improved forces if not selfconsistent)
 use gradient corrections 
 use of overlap-Matrix (Vanderbilt PP)
 Fermi-smearing in eV        SIGMA  =   0.01


--------------------------------------------------------------------------------------------------------


  energy-cutoff  :      400.00
  volume of cell :     4246.89
      direct lattice vectors                 reciprocal lattice vectors
     8.753472000 -15.161458247  0.000000000     0.057120192 -0.032978358  0.000000000
     8.753472000 15.161458247  0.000000000     0.057120192  0.032978358  0.000000000
     0.000000000  0.000000000 16.000000000     0.000000000  0.000000000  0.062500000

  length of vectors
    17.506944000 17.506944000 16.000000000     0.065956716  0.065956716  0.062500000


 
 k-points in units of 2pi/SCALE and weight: Automatic mesh                          
   0.00000000  0.00000000  0.00000000       1.000
 
 k-points in reciprocal lattice and weights: Automatic mesh                          
   0.00000000  0.00000000  0.00000000       1.000
 
 position of ions in fractional coordinates (direct lattice) 
   0.04547372  0.09715701  0.00000000
   0.19302351  0.09763532  0.00000000
   0.33318324  0.09763532  0.00000000
   0.48025471  0.09715701  0.00000000
   0.62046583  0.09555407  0.00000000
   0.76200171  0.09543199  0.00000000
   0.90365967  0.09555407  0.00000000
   0.04732484  0.23939893  0.00000000
   0.19058416  0.23876083  0.00000000
   0.33461368  0.24065594  0.00000000
   0.47674810  0.23876083  0.00000000
   0.62064552  0.23939893  0.00000000
   0.76246235  0.23857133  0.00000000
   0.90468041  0.23857133  0.00000000
   0.04753806  0.38142043  0.00000000
   0.19040291  0.38134647  0.00000000
   0.33355817  0.38181841  0.00000000
   0.47683166  0.38181841  0.00000000
   0.61951499  0.38134647  0.00000000
   0.76245380  0.38142043  0.00000000
   0.90486287  0.38115432  0.00000000
   0.04746493  0.52352992  0.00000000
   0.19038575  0.52366926  0.00000000
   0.33335914  0.52393333  0.00000000
   0.47632487  0.52407831  0.00000000
   0.61914562  0.52393333  0.00000000
   0.76185494  0.52366926  0.00000000
   0.90463641  0.52352992  0.00000000
   0.04697307  0.66537472  0.00000000
   0.19016164  0.66584677  0.00000000
   0.33325298  0.66606803  0.00000000
   0.47620518  0.66661483  0.00000000
   0.61898108  0.66661483  0.00000000
   0.76138648  0.66606803  0.00000000
   0.90425656  0.66584677  0.00000000
   0.04699898  0.80759871  0.00000000
   0.18917116  0.80759871  0.00000000
   0.33294269  0.80783806  0.00000000
   0.47611448  0.80916820  0.00000000
   0.61898283  0.80939423  0.00000000
   0.76162515  0.80916820  0.00000000
   0.90346680  0.80783806  0.00000000
   0.04560812  0.94850059  0.00000000
   0.19005219  0.95153295  0.00000000
   0.33146390  0.94850059  0.00000000
   0.47637718  0.95230511  0.00000000
   0.61923098  0.95239693  0.00000000
   0.76173739  0.95239693  0.00000000
   0.90449936  0.95230511  0.00000000
   0.23863352  0.04869561  0.00000000
   0.52600074  0.04797631  0.00000000
   0.66726827  0.04757360  0.00000000
   0.80887676  0.04757360  0.00000000
   0.95054699  0.04797631  0.00000000
   0.09471468  0.19215882  0.00000000
   0.23989442  0.19294005  0.00000000
   0.38161705  0.19294005  0.00000000
   0.52601557  0.19215882  0.00000000
   0.66747742  0.19093840  0.00000000
   0.80964762  0.19072380  0.00000000
   0.95203241  0.19093840  0.00000000
   0.09518945  0.33425697  0.00000000
   0.23814566  0.33395505  0.00000000
   0.38195405  0.33533668  0.00000000
   0.52438083  0.33395505  0.00000000
   0.66763895  0.33425697  0.00000000
   0.80983059  0.33364460  0.00000000
   0.95238544  0.33364460  0.00000000
   0.09523094  0.47632025  0.00000000
   0.23816144  0.47638314  0.00000000
   0.38115649  0.47676640  0.00000000
   0.52418134  0.47676640  0.00000000
   0.66679312  0.47638314  0.00000000
   0.80966074  0.47632025  0.00000000
   0.95234965  0.47612788  0.00000000
   0.09501480  0.61836900  0.00000000
   0.23807169  0.61866988  0.00000000
   0.38106028  0.61892263  0.00000000
   0.52388834  0.61920525  0.00000000
   0.66643378  0.61892263  0.00000000
   0.80916961  0.61866988  0.00000000
   0.95192562  0.61836900  0.00000000
   0.09425560  0.75993977  0.00000000
   0.23772722  0.76079538  0.00000000
   0.38096379  0.76099415  0.00000000
   0.52383791  0.76182024  0.00000000
   0.66655375  0.76182024  0.00000000
   0.80860178  0.76099415  0.00000000
   0.95163959  0.76079538  0.00000000
   0.09450193  0.90221083  0.00000000
   0.23628033  0.90221083  0.00000000
   0.38049347  0.90270326  0.00000000
   0.52381423  0.90463182  0.00000000
   0.66660676  0.90464210  0.00000000
   0.80938901  0.90463182  0.00000000
   0.95078121  0.90270326  0.00000000
   0.09463722  0.04768991  0.00000000
   0.38162412  0.04768991  0.00000000
 
 position of ions in cartesian coordinates  (Angst):
   1.24851411  0.78359397  0.00000000
   2.54427399 -1.44622403  0.00000000
   3.77115824 -3.57124989  0.00000000
   5.05435734 -5.80831987  0.00000000
   6.26766020 -7.95842777  0.00000000
   7.50552183 -10.10616900  0.00000000
   8.74658948 -12.25205923  0.00000000
   2.50982849  2.91212325  0.00000000
   3.75825935  0.73042859  0.00000000
   5.03560652 -1.42453643  0.00000000
   6.26318739 -3.60823404  0.00000000
   7.52837495 -5.78025421  0.00000000
   8.76252032 -7.94295181  0.00000000
  10.00742211 -10.09918496  0.00000000
   3.75487609  5.06214363  0.00000000
   5.00479218  2.89498281  0.00000000
   6.26202886  0.73169550  0.00000000
   7.51616933 -1.44053950  0.00000000
   8.76101274 -3.61098205  0.00000000
  10.01287103 -5.77702155  0.00000000
  11.25711547 -7.94018540  0.00000000
   4.99818746  7.21783939  0.00000000
   6.25046057  5.05306410  0.00000000
   7.50428560  2.88938271  0.00000000
   8.75700127  0.72401183  0.00000000
  10.00590963 -1.44355721  0.00000000
  11.25280016 -3.61124223  0.00000000
  12.50141400 -5.77813021  0.00000000
   6.23551643  9.37587071  0.00000000
   7.49304571  7.21208027  0.00000000
   8.74752847  5.04596147  0.00000000
  10.00364295  2.88688802  0.00000000
  11.25342784  0.72219709  0.00000000
  12.49518305 -1.44516668  0.00000000
  13.74385558 -3.61464002  0.00000000
   7.48069691 11.53180100  0.00000000
   8.72519707  9.37626349  0.00000000
   9.98579233  7.20010642  0.00000000
  11.25068597  5.04958008  0.00000000
  12.50325864  2.88691453  0.00000000
  13.74989561  0.72082200  0.00000000
  14.97985923 -1.44987119  0.00000000
   8.70190276 13.68916649  0.00000000
   9.99283359 11.54515878  0.00000000
  11.20413332  9.35517603  0.00000000
  12.50593042  7.21576144  0.00000000
  13.75720090  5.05128176  0.00000000
  15.00462678  2.89067676  0.00000000
  16.25348593  0.72480490  0.00000000
   2.51512753 -2.87973566  0.00000000
   5.02429202 -7.24754754  0.00000000
   6.25734831 -9.39547479  0.00000000
   7.49691430 -11.54246608  0.00000000
   8.74054572 -13.68428777  0.00000000
   2.51113910  1.47739526  0.00000000
   3.78880440 -0.71189685  0.00000000
   5.02936944 -2.86061853  0.00000000
   6.28651938 -5.06175520  0.00000000
   7.51411877 -7.22502645  0.00000000
   8.75672320 -9.38378755  0.00000000
  10.00496294 -11.53929511  0.00000000
   3.75914718  3.62461220  0.00000000
   5.00786753  1.45261016  0.00000000
   6.27878436 -0.70678738  0.00000000
   7.51341907 -2.88713240  0.00000000
   8.77006783 -5.05455697  0.00000000
  10.00937809 -7.21967393  0.00000000
  11.25722802 -9.38101340  0.00000000
   5.00305733  5.77786969  0.00000000
   6.25474599  3.61178827  0.00000000
   7.50980394  1.44958563  0.00000000
   8.76176795 -0.71887964  0.00000000
  10.00676139 -2.88689304  0.00000000
  11.25679860 -5.05392792  0.00000000
  12.50413805 -7.22021657  0.00000000
   6.24458511  7.93481276  0.00000000
   7.49946334  5.77042349  0.00000000
   8.75332246  3.60634007  0.00000000
  10.00603779  1.44514340  0.00000000
  11.25133134 -0.72033824  0.00000000
  12.49855300 -2.88825380  0.00000000
  13.74552998 -5.05720485  0.00000000
   7.47717529 10.09274279  0.00000000
   8.74053969  7.93047605  0.00000000
   9.99609685  5.76181436  0.00000000
  11.25397264  3.60815908  0.00000000
  12.50323174  1.44437884  0.00000000
  13.73941403 -0.72180119  0.00000000
  14.98975157 -2.89347643  0.00000000
   8.72469724 12.24604478  0.00000000
   9.96575049 10.09647749  0.00000000
  11.23242661  7.91746185  0.00000000
  12.50386251  5.77374991  0.00000000
  13.75388290  3.60896278  0.00000000
  15.00363335  1.44401980  0.00000000
  16.22442440 -0.72893195  0.00000000
   1.24585660 -0.71178966  0.00000000
   3.75798837 -5.06292953  0.00000000
 


--------------------------------------------------------------------------------------------------------


 use parallel FFT for orbitals z direction half grid
 k-point  1 :   0.0000 0.0000 0.0000  plane waves:   38625

 maximum and minimum number of plane-waves per node :       884      874

 maximum number of plane-waves:     38625
 maximum index in each direction: 
   IXMAX=   28   IYMAX=   28   IZMAX=   26
   IXMIN=  -28   IYMIN=  -28   IZMIN=    0


 real space projection operators:
  total allocation   :      11522.19 KBytes
  max/ min on nodes  :        375.56        230.00


 parallel 3D FFT for wavefunctions:
    minimum data exchange during FFTs selected (reduces bandwidth)
 parallel 3D FFT for charge:
    minimum data exchange during FFTs selected (reduces bandwidth)


 total amount of memory used by VASP MPI-rank0    71260. kBytes
=======================================================================

   base      :      30000. kBytes
   nonlr-proj:        439. kBytes
   fftplans  :      19250. kBytes
   grid      :      14538. kBytes
   one-center:          9. kBytes
   wavefun   :       7024. kBytes
 
     INWAV:  cpu time    0.0000: real time    0.0000
 Broyden mixing: mesh for mixing (old mesh)
   NGX = 57   NGY = 57   NGZ = 53
  (NGX  =180   NGY  =180   NGZ  =160)
  gives a total of 172197 points

 initial charge density was supplied:
 charge density of overlapping atoms calculated
 number of electron     390.0000000 magnetization       0.0000000
 keeping initial charge density in first step


--------------------------------------------------------------------------------------------------------


 Maximum index for non-local projection operator          381
 Maximum index for augmentation-charges          744 (set IRDMAX)


--------------------------------------------------------------------------------------------------------


 First call to EWALD:  gamma=   0.109
 Maximum number of real-space cells 3x 3x 3
 Maximum number of reciprocal cells 3x 3x 3

    FEWALD:  cpu time    0.0033: real time    0.0033


--------------------------------------- Iteration      1(   1)  ---------------------------------------


    POTLOK:  cpu time    0.1951: real time    0.2029
    SETDIJ:  cpu time    0.1360: real time    0.1369
     EDDAV:  cpu time    2.8465: real time    2.8747
       DOS:  cpu time    0.0004: real time    0.0004
    --------------------------------------------
      LOOP:  cpu time    3.1780: real time    3.2150

 eigenvalue-minimisations  :  1158
 total energy-change (2. order) : 0.4173208E+04  (-0.1468093E+05)
 number of electron     390.0000000 magnetization       0.0000000
 augmentation part      390.0000000 magnetization       0.0000000

 Free energy of the ion-electron system (eV)
  ---------------------------------------------------
  alpha Z        PSCENC =       199.96740644
  Ewald energy   TEWEN  =     42702.76983941
  -Hartree energ DENC   =    -54954.96926618
  -exchange      EXHF   =         0.00000000
  -V(xc)+E(xc)   XCENC  =      1307.24685526
  PAW double counting   =     11980.37588461   -11995.58027112
  entropy T*S    EENTRO =        -0.00878964
  eigenvalues    EBANDS =     -1278.41976201
  atomic energy  EATOM  =     16211.82620523
  Solvation  Ediel_sol  =         0.00000000
  ---------------------------------------------------
  free energy    TOTEN  =      4173.20810199 eV

  energy without entropy =     4173.21689163  energy(sigma->0) =     4173.21249681


--------------------------------------------------------------------------------------------------------




--------------------------------------- Iteration      1(   2)  ---------------------------------------


     EDDAV:  cpu time    3.6390: real time    3.6645
       DOS:  cpu time    0.0003: real time    0.0002
    --------------------------------------------
      LOOP:  cpu time    3.6393: real time    3.6647

 eigenvalue-minimisations  :  1482
 total energy-change (2. order) :-0.4168815E+04  (-0.3958937E+04)
 number of electron     390.0000000 magnetization       0.0000000
 augmentation part      390.0000000 magnetization       0.0000000

 Free energy of the ion-electron system (eV)
  ---------------------------------------------------
  alpha Z        PSCENC =       199.96740644
  Ewald energy   TEWEN  =     42702.76983941
  -Hartree energ DENC   =    -54954.96926618
  -exchange      EXHF   =         0.00000000
  -V(xc)+E(xc)   XCENC  =      1307.24685526
  PAW double counting   =     11980.37588461   -11995.58027112
  entropy T*S    EENTRO =        -0.00000003
  eigenvalues    EBANDS =     -5447.24399323
  atomic energy  EATOM  =     16211.82620523
  Solvation  Ediel_sol  =         0.00000000
  ---------------------------------------------------
  free energy    TOTEN  =         4.39266038 eV

  energy without entropy =        4.39266041  energy(sigma->0) =        4.39266039


--------------------------------------------------------------------------------------------------------




--------------------------------------- Iteration      1(   3)  ---------------------------------------


     EDDAV:  cpu time    2.8425: real time    2.8668
       DOS:  cpu time    0.0003: real time    0.0003
    --------------------------------------------
      LOOP:  cpu time    2.8428: real time    2.8671

 eigenvalue-minimisations  :  1166
 total energy-change (2. order) :-0.9050355E+03  (-0.8959470E+03)
 number of electron     390.0000000 magnetization       0.0000000
 augmentation part      390.0000000 magnetization       0.0000000

 Free energy of the ion-electron system (eV)
  ---------------------------------------------------
  alpha Z        PSCENC =       199.96740644
  Ewald energy   TEWEN  =     42702.76983941
  -Hartree energ DENC   =    -54954.96926618
  -exchange      EXHF   =         0.00000000
  -V(xc)+E(xc)   XCENC  =      1307.24685526
  PAW double counting   =     11980.37588461   -11995.58027112
  entropy T*S    EENTRO =        -0.00252771
  eigenvalues    EBANDS =     -6352.27695260
  atomic energy  EATOM  =     16211.82620523
  Solvation  Ediel_sol  =         0.00000000
  ---------------------------------------------------
  free energy    TOTEN  =      -900.64282667 eV

  energy without entropy =     -900.64029896  energy(sigma->0) =     -900.64156281


--------------------------------------------------------------------------------------------------------




--------------------------------------- Iteration      1(   4)  ---------------------------------------


     EDDAV:  cpu time    2.8617: real time    2.9156
       DOS:  cpu time    0.0003: real time    0.0003
    --------------------------------------------
      LOOP:  cpu time    2.8620: real time    2.9159

 eigenvalue-minimisations  :  1134
 total energy-change (2. order) :-0.4851123E+02  (-0.4804889E+02)
 number of electron     390.0000000 magnetization       0.0000000
 augmentation part      390.0000000 magnetization       0.0000000

 Free energy of the ion-electron system (eV)
  ---------------------------------------------------
  alpha Z        PSCENC =       199.96740644
  Ewald energy   TEWEN  =     42702.76983941
  -Hartree energ DENC   =    -54954.96926618
  -exchange      EXHF   =         0.00000000
  -V(xc)+E(xc)   XCENC  =      1307.24685526
  PAW double counting   =     11980.37588461   -11995.58027112
  entropy T*S    EENTRO =        -0.00170301
  eigenvalues    EBANDS =     -6400.78900767
  atomic energy  EATOM  =     16211.82620523
  Solvation  Ediel_sol  =         0.00000000
  ---------------------------------------------------
  free energy    TOTEN  =      -949.15405704 eV

  energy without entropy =     -949.15235403  energy(sigma->0) =     -949.15320554


--------------------------------------------------------------------------------------------------------




--------------------------------------- Iteration      1(   5)  ---------------------------------------


     EDDAV:  cpu time    2.9085: real time    2.9398
       DOS:  cpu time    0.0003: real time    0.0003
    CHARGE:  cpu time    1.2346: real time    1.2425
    MIXING:  cpu time    0.0060: real time    0.0068
    --------------------------------------------
      LOOP:  cpu time    4.1494: real time    4.1894

 eigenvalue-minimisations  :  1204
 total energy-change (2. order) :-0.1399736E+01  (-0.1392410E+01)
 number of electron     390.0000022 magnetization      -0.0000000
 augmentation part       15.1844537 magnetization      -0.0018447

 Broyden mixing:
  rms(total) = 0.55768E+01    rms(broyden)= 0.55748E+01
  rms(prec ) = 0.62853E+01
  weight for this iteration     100.00

 Free energy of the ion-electron system (eV)
  ---------------------------------------------------
  alpha Z        PSCENC =       199.96740644
  Ewald energy   TEWEN  =     42702.76983941
  -Hartree energ DENC   =    -54954.96926618
  -exchange      EXHF   =         0.00000000
  -V(xc)+E(xc)   XCENC  =      1307.24685526
  PAW double counting   =     11980.37588461   -11995.58027112
  entropy T*S    EENTRO =        -0.00162483
  eigenvalues    EBANDS =     -6402.18882200
  atomic energy  EATOM  =     16211.82620523
  Solvation  Ediel_sol  =         0.00000000
  ---------------------------------------------------
  free energy    TOTEN  =      -950.55379319 eV

  energy without entropy =     -950.55216836  energy(sigma->0) =     -950.55298077


--------------------------------------------------------------------------------------------------------




--------------------------------------- Iteration      1(   6)  ---------------------------------------


    POTLOK:  cpu time    0.1832: real time    0.1879
    SETDIJ:  cpu time    0.1336: real time    0.1376
    EDDIAG:  cpu time    0.3234: real time    0.3268
  RMM-DIIS:  cpu time    0.9996: real time    1.0084
    ORTHCH:  cpu time    0.0216: real time    0.0224
       DOS:  cpu time    0.0003: real time    0.0003
    CHARGE:  cpu time    1.1582: real time    1.1681
    MIXING:  cpu time    0.0148: real time    0.0150
    --------------------------------------------
      LOOP:  cpu time    2.8345: real time    2.8664

 eigenvalue-minimisations  :   980
 total energy-change (2. order) : 0.8078591E+02  (-0.2279281E+02)
 number of electron     390.0000015 magnetization      -0.0000000
 augmentation part       12.3642237 magnetization      -0.0009200

 Broyden mixing:
  rms(total) = 0.26820E+01    rms(broyden)= 0.26811E+01
  rms(prec ) = 0.29120E+01
  weight for this iteration     100.00

 eigenvalues of (default mixing * dielectric matrix)
  average eigenvalue GAMMA=   1.2067
  1.2067

 Free energy of the ion-electron system (eV)
  ---------------------------------------------------
  alpha Z        PSCENC =       199.96740644
  Ewald energy   TEWEN  =     42702.76983941
  -Hartree energ DENC   =    -55802.00336657
  -exchange      EXHF   =         0.00000000
  -V(xc)+E(xc)   XCENC  =      1348.84256130
  PAW double counting   =     21793.32133722   -21820.49285610
  entropy T*S    EENTRO =        -0.02549403
  eigenvalues    EBANDS =     -5503.97351738
  atomic energy  EATOM  =     16211.82620523
  Solvation  Ediel_sol  =         0.00000000
  ---------------------------------------------------
  free energy    TOTEN  =      -869.76788447 eV

  energy without entropy =     -869.74239045  energy(sigma->0) =     -869.75513746


--------------------------------------------------------------------------------------------------------




--------------------------------------- Iteration      1(   7)  ---------------------------------------


    POTLOK:  cpu time    0.2073: real time    0.2427
    SETDIJ:  cpu time    0.3401: real time    0.3574
    EDDIAG:  cpu time    0.4466: real time    0.4596
  RMM-DIIS:  cpu time    1.0330: real time    1.0452
    ORTHCH:  cpu time    0.0222: real time    0.0223
       DOS:  cpu time    0.0004: real time    0.0004
    CHARGE:  cpu time    1.1534: real time    1.1631
    MIXING:  cpu time    0.0059: real time    0.0061
    --------------------------------------------
      LOOP:  cpu time    3.2089: real time    3.2967

 eigenvalue-minimisations  :   980
 total energy-change (2. order) : 0.1081419E+02  (-0.2964238E+01)
 number of electron     390.0000014 magnetization       0.0000000
 augmentation part       11.6917575 magnetization       0.0008792

 Broyden mixing:
  rms(total) = 0.15436E+01    rms(broyden)= 0.15432E+01
  rms(prec ) = 0.16523E+01
  weight for this iteration     100.00

 eigenvalues of (default mixing * dielectric matrix)
  average eigenvalue GAMMA=   1.7628
  1.2141  2.3115

 Free energy of the ion-electron system (eV)
  ---------------------------------------------------
  alpha Z        PSCENC =       199.96740644
  Ewald energy   TEWEN  =     42702.76983941
  -Hartree energ DENC   =    -56213.35307365
  -exchange      EXHF   =         0.00000000
  -V(xc)+E(xc)   XCENC  =      1363.97548209
  PAW double counting   =     31856.32511347   -31889.29556735
  entropy T*S    EENTRO =        -0.00146358
  eigenvalues    EBANDS =     -5091.16763404
  atomic energy  EATOM  =     16211.82620523
  Solvation  Ediel_sol  =         0.00000000
  ---------------------------------------------------
  free energy    TOTEN  =      -858.95369198 eV

  energy without entropy =     -858.95222840  energy(sigma->0) =     -858.95296019


--------------------------------------------------------------------------------------------------------




--------------------------------------- Iteration      1(   8)  ---------------------------------------


    POTLOK:  cpu time    0.1809: real time    0.1848
    SETDIJ:  cpu time    0.1355: real time    0.1378
    EDDIAG:  cpu time    0.3105: real time    0.3128
  RMM-DIIS:  cpu time    1.0171: real time    1.0224
    ORTHCH:  cpu time    0.0231: real time    0.0232
       DOS:  cpu time    0.0003: real time    0.0003
    CHARGE:  cpu time    1.1621: real time    1.1703
    MIXING:  cpu time    0.0069: real time    0.0082
    --------------------------------------------
      LOOP:  cpu time    2.8364: real time    2.8597

 eigenvalue-minimisations  :   980
 total energy-change (2. order) : 0.3916008E+01  (-0.1019903E+01)
 number of electron     390.0000014 magnetization       0.0000000
 augmentation part       11.6107148 magnetization       0.0002231

 Broyden mixing:
  rms(total) = 0.37068E+00    rms(broyden)= 0.36995E+00
  rms(prec ) = 0.46558E+00
  weight for this iteration     100.00

 eigenvalues of (default mixing * dielectric matrix)
  average eigenvalue GAMMA=   1.4674
  2.4767  1.2063  0.7193

 Free energy of the ion-electron system (eV)
  ---------------------------------------------------
  alpha Z        PSCENC =       199.96740644
  Ewald energy   TEWEN  =     42702.76983941
  -Hartree energ DENC   =    -56553.76980761
  -exchange      EXHF   =         0.00000000
  -V(xc)+E(xc)   XCENC  =      1372.77571937
  PAW double counting   =     43825.99916324   -43862.49300342
  entropy T*S    EENTRO =        -0.00807795
  eigenvalues    EBANDS =     -4752.10512882
  atomic energy  EATOM  =     16211.82620523
  Solvation  Ediel_sol  =         0.00000000
  ---------------------------------------------------
  free energy    TOTEN  =      -855.03768411 eV

  energy without entropy =     -855.02960616  energy(sigma->0) =     -855.03364514


--------------------------------------------------------------------------------------------------------




--------------------------------------- Iteration      1(   9)  ---------------------------------------


    POTLOK:  cpu time    0.1838: real time    0.1846
    SETDIJ:  cpu time    0.1836: real time    0.1863
    EDDIAG:  cpu time    0.3946: real time    0.3964
  RMM-DIIS:  cpu time    0.9996: real time    1.0083
    ORTHCH:  cpu time    0.0223: real time    0.0224
       DOS:  cpu time    0.0003: real time    0.0003
    CHARGE:  cpu time    1.1540: real time    1.1636
    MIXING:  cpu time    0.0056: real time    0.0056
    --------------------------------------------
      LOOP:  cpu time    2.9438: real time    2.9674

 eigenvalue-minimisations  :   982
 total energy-change (2. order) : 0.3751985E+00  (-0.9486069E-01)
 number of electron     390.0000014 magnetization       0.0000000
 augmentation part       11.5781124 magnetization       0.0002514

 Broyden mixing:
  rms(total) = 0.15824E+00    rms(broyden)= 0.15735E+00
  rms(prec ) = 0.23648E+00
  weight for this iteration     100.00

 eigenvalues of (default mixing * dielectric matrix)
  average eigenvalue GAMMA=   1.4462
  2.3700  1.4844  1.2888  0.6415

 Free energy of the ion-electron system (eV)
  ---------------------------------------------------
  alpha Z        PSCENC =       199.96740644
  Ewald energy   TEWEN  =     42702.76983941
  -Hartree energ DENC   =    -56632.69941572
  -exchange      EXHF   =         0.00000000
  -V(xc)+E(xc)   XCENC  =      1374.62455508
  PAW double counting   =     45505.45104559   -45542.19650559
  entropy T*S    EENTRO =        -0.00659187
  eigenvalues    EBANDS =     -4674.39902421
  atomic energy  EATOM  =     16211.82620523
  Solvation  Ediel_sol  =         0.00000000
  ---------------------------------------------------
  free energy    TOTEN  =      -854.66248564 eV

  energy without entropy =     -854.65589376  energy(sigma->0) =     -854.65918970


--------------------------------------------------------------------------------------------------------




--------------------------------------- Iteration      1(  10)  ---------------------------------------


    POTLOK:  cpu time    0.1715: real time    0.1734
    SETDIJ:  cpu time    0.1323: real time    0.1326
    EDDIAG:  cpu time    0.3355: real time    0.3423
  RMM-DIIS:  cpu time    1.0173: real time    1.0267
    ORTHCH:  cpu time    0.0222: real time    0.0223
       DOS:  cpu time    0.0003: real time    0.0003
    CHARGE:  cpu time    1.1554: real time    1.1662
    MIXING:  cpu time    0.0061: real time    0.0061
    --------------------------------------------
      LOOP:  cpu time    2.8407: real time    2.8700

 eigenvalue-minimisations  :   990
 total energy-change (2. order) : 0.1465458E+00  (-0.2475634E-01)
 number of electron     390.0000013 magnetization       0.0000000
 augmentation part       11.5023483 magnetization       0.0001057

 Broyden mixing:
  rms(total) = 0.88928E-01    rms(broyden)= 0.88825E-01
  rms(prec ) = 0.15419E+00
  weight for this iteration     100.00

 eigenvalues of (default mixing * dielectric matrix)
  average eigenvalue GAMMA=   1.5311
  2.3819  2.3819  1.1230  1.1230  0.6460

 Free energy of the ion-electron system (eV)
  ---------------------------------------------------
  alpha Z        PSCENC =       199.96740644
  Ewald energy   TEWEN  =     42702.76983941
  -Hartree energ DENC   =    -56701.61313890
  -exchange      EXHF   =         0.00000000
  -V(xc)+E(xc)   XCENC  =      1375.80107532
  PAW double counting   =     45573.14938183   -45609.58636022
  entropy T*S    EENTRO =        -0.01735601
  eigenvalues    EBANDS =     -4606.81299295
  atomic energy  EATOM  =     16211.82620523
  Solvation  Ediel_sol  =         0.00000000
  ---------------------------------------------------
  free energy    TOTEN  =      -854.51593985 eV

  energy without entropy =     -854.49858384  energy(sigma->0) =     -854.50726185


--------------------------------------------------------------------------------------------------------




--------------------------------------- Iteration      1(  11)  ---------------------------------------


    POTLOK:  cpu time    0.1719: real time    0.1740
    SETDIJ:  cpu time    0.1321: real time    0.1324
    EDDIAG:  cpu time    0.3817: real time    0.3909
  RMM-DIIS:  cpu time    1.0504: real time    1.0557
    ORTHCH:  cpu time    0.0219: real time    0.0220
       DOS:  cpu time    0.0003: real time    0.0003
    CHARGE:  cpu time    1.1544: real time    1.1633
    MIXING:  cpu time    0.0084: real time    0.0084
    --------------------------------------------
      LOOP:  cpu time    2.9210: real time    2.9469

 eigenvalue-minimisations  :   980
 total energy-change (2. order) : 0.7934845E-01  (-0.7259266E-02)
 number of electron     390.0000013 magnetization       0.0000000
 augmentation part       11.5214201 magnetization       0.0000121

 Broyden mixing:
  rms(total) = 0.47280E-01    rms(broyden)= 0.47201E-01
  rms(prec ) = 0.97183E-01
  weight for this iteration     100.00

 eigenvalues of (default mixing * dielectric matrix)
  average eigenvalue GAMMA=   1.5909
  2.5322  2.5322  1.6400  1.0903  1.0903  0.6602

 Free energy of the ion-electron system (eV)
  ---------------------------------------------------
  alpha Z        PSCENC =       199.96740644
  Ewald energy   TEWEN  =     42702.76983941
  -Hartree energ DENC   =    -56770.97310650
  -exchange      EXHF   =         0.00000000
  -V(xc)+E(xc)   XCENC  =      1376.05436472
  PAW double counting   =     45645.75866697   -45681.78323600
  entropy T*S    EENTRO =        -0.02339292
  eigenvalues    EBANDS =     -4538.03333876
  atomic energy  EATOM  =     16211.82620523
  Solvation  Ediel_sol  =         0.00000000
  ---------------------------------------------------
  free energy    TOTEN  =      -854.43659140 eV

  energy without entropy =     -854.41319848  energy(sigma->0) =     -854.42489494


--------------------------------------------------------------------------------------------------------




--------------------------------------- Iteration      1(  12)  ---------------------------------------


    POTLOK:  cpu time    0.1774: real time    0.1782
    SETDIJ:  cpu time    0.1302: real time    0.1342
    EDDIAG:  cpu time    0.3307: real time    0.3377
  RMM-DIIS:  cpu time    1.1518: real time    1.1642
    ORTHCH:  cpu time    0.0221: real time    0.0221
       DOS:  cpu time    0.0003: real time    0.0003
    CHARGE:  cpu time    1.1561: real time    1.1642
    MIXING:  cpu time    0.0067: real time    0.0067
    --------------------------------------------
      LOOP:  cpu time    2.9753: real time    3.0075

 eigenvalue-minimisations  :   980
 total energy-change (2. order) : 0.7160232E-02  (-0.7979124E-02)
 number of electron     390.0000013 magnetization       0.0000000
 augmentation part       11.5138410 magnetization       0.0001153

 Broyden mixing:
  rms(total) = 0.47626E-01    rms(broyden)= 0.47461E-01
  rms(prec ) = 0.71150E-01
  weight for this iteration     100.00

 eigenvalues of (default mixing * dielectric matrix)
  average eigenvalue GAMMA=   1.6679
  3.2532  2.5321  2.1292  1.1117  1.1117  0.6767  0.8606

 Free energy of the ion-electron system (eV)
  ---------------------------------------------------
  alpha Z        PSCENC =       199.96740644
  Ewald energy   TEWEN  =     42702.76983941
  -Hartree energ DENC   =    -56852.97582168
  -exchange      EXHF   =         0.00000000
  -V(xc)+E(xc)   XCENC  =      1376.89038427
  PAW double counting   =     45625.29339536   -45661.31910800
  entropy T*S    EENTRO =        -0.01140674
  eigenvalues    EBANDS =     -4456.87032546
  atomic energy  EATOM  =     16211.82620523
  Solvation  Ediel_sol  =         0.00000000
  ---------------------------------------------------
  free energy    TOTEN  =      -854.42943117 eV

  energy without entropy =     -854.41802443  energy(sigma->0) =     -854.42372780


--------------------------------------------------------------------------------------------------------




--------------------------------------- Iteration      1(  13)  ---------------------------------------


    POTLOK:  cpu time    0.1730: real time    0.1737
    SETDIJ:  cpu time    0.1316: real time    0.1332
    EDDIAG:  cpu time    0.3357: real time    0.3410
  RMM-DIIS:  cpu time    1.0024: real time    1.0112
    ORTHCH:  cpu time    0.0217: real time    0.0217
       DOS:  cpu time    0.0003: real time    0.0003
    CHARGE:  cpu time    1.1545: real time    1.1616
    MIXING:  cpu time    0.0071: real time    0.0071
    --------------------------------------------
      LOOP:  cpu time    2.8262: real time    2.8497

 eigenvalue-minimisations  :   980
 total energy-change (2. order) : 0.9733626E-02  (-0.3687256E-02)
 number of electron     390.0000013 magnetization      -0.0000000
 augmentation part       11.5008422 magnetization      -0.0000157

 Broyden mixing:
  rms(total) = 0.17571E-01    rms(broyden)= 0.17415E-01
  rms(prec ) = 0.30921E-01
  weight for this iteration     100.00

 eigenvalues of (default mixing * dielectric matrix)
  average eigenvalue GAMMA=   1.7720
  4.6837  2.5223  2.1229  1.3225  1.0971  1.0971  0.6651  0.6651

 Free energy of the ion-electron system (eV)
  ---------------------------------------------------
  alpha Z        PSCENC =       199.96740644
  Ewald energy   TEWEN  =     42702.76983941
  -Hartree energ DENC   =    -56906.19099265
  -exchange      EXHF   =         0.00000000
  -V(xc)+E(xc)   XCENC  =      1377.33684975
  PAW double counting   =     45493.46057646   -45529.50577022
  entropy T*S    EENTRO =        -0.02007659
  eigenvalues    EBANDS =     -4404.06373538
  atomic energy  EATOM  =     16211.82620523
  Solvation  Ediel_sol  =         0.00000000
  ---------------------------------------------------
  free energy    TOTEN  =      -854.41969754 eV

  energy without entropy =     -854.39962096  energy(sigma->0) =     -854.40965925


--------------------------------------------------------------------------------------------------------




--------------------------------------- Iteration      1(  14)  ---------------------------------------


    POTLOK:  cpu time    0.1739: real time    0.1749
    SETDIJ:  cpu time    0.1448: real time    0.1454
    EDDIAG:  cpu time    0.4324: real time    0.4392
  RMM-DIIS:  cpu time    1.1111: real time    1.1211
    ORTHCH:  cpu time    0.0220: real time    0.0220
       DOS:  cpu time    0.0003: real time    0.0003
    CHARGE:  cpu time    1.1664: real time    1.1755
    MIXING:  cpu time    0.0100: real time    0.0102
    --------------------------------------------
      LOOP:  cpu time    3.0608: real time    3.0887

 eigenvalue-minimisations  :   982
 total energy-change (2. order) :-0.6559182E-02  (-0.5935381E-03)
 number of electron     390.0000013 magnetization      -0.0000000
 augmentation part       11.4940495 magnetization      -0.0000137

 Broyden mixing:
  rms(total) = 0.22523E-01    rms(broyden)= 0.22491E-01
  rms(prec ) = 0.31729E-01
  weight for this iteration     100.00

 eigenvalues of (default mixing * dielectric matrix)
  average eigenvalue GAMMA=   1.7666
  5.1754  2.5110  2.0279  1.7845  1.0812  1.0812  0.8536  0.6540  0.7304

 Free energy of the ion-electron system (eV)
  ---------------------------------------------------
  alpha Z        PSCENC =       199.96740644
  Ewald energy   TEWEN  =     42702.76983941
  -Hartree energ DENC   =    -56921.74250581
  -exchange      EXHF   =         0.00000000
  -V(xc)+E(xc)   XCENC  =      1377.39217564
  PAW double counting   =     45452.77281222   -45488.80188095
  entropy T*S    EENTRO =        -0.02175990
  eigenvalues    EBANDS =     -4388.58854902
  atomic energy  EATOM  =     16211.82620523
  Solvation  Ediel_sol  =         0.00000000
  ---------------------------------------------------
  free energy    TOTEN  =      -854.42625673 eV

  energy without entropy =     -854.40449683  energy(sigma->0) =     -854.41537678


--------------------------------------------------------------------------------------------------------




--------------------------------------- Iteration      1(  15)  ---------------------------------------


    POTLOK:  cpu time    0.1720: real time    0.1731
    SETDIJ:  cpu time    0.1311: real time    0.1327
    EDDIAG:  cpu time    0.3593: real time    0.3995
  RMM-DIIS:  cpu time    1.3373: real time    1.4918
    ORTHCH:  cpu time    0.0225: real time    0.0225
       DOS:  cpu time    0.0003: real time    0.0003
    CHARGE:  cpu time    1.2294: real time    1.2361
    MIXING:  cpu time    0.0069: real time    0.0069
    --------------------------------------------
      LOOP:  cpu time    3.2588: real time    3.4631

 eigenvalue-minimisations  :   980
 total energy-change (2. order) :-0.1811257E-01  (-0.8369303E-03)
 number of electron     390.0000013 magnetization      -0.0000000
 augmentation part       11.5006393 magnetization      -0.0000013

 Broyden mixing:
  rms(total) = 0.17365E-01    rms(broyden)= 0.17266E-01
  rms(prec ) = 0.23687E-01
  weight for this iteration     100.00

 eigenvalues of (default mixing * dielectric matrix)
  average eigenvalue GAMMA=   1.7508
  5.4102  2.4387  2.4387  1.7212  1.2136  1.2136  1.0363  0.6464  0.6946  0.6946

 Free energy of the ion-electron system (eV)
  ---------------------------------------------------
  alpha Z        PSCENC =       199.96740644
  Ewald energy   TEWEN  =     42702.76983941
  -Hartree energ DENC   =    -56929.97309096
  -exchange      EXHF   =         0.00000000
  -V(xc)+E(xc)   XCENC  =      1377.28383087
  PAW double counting   =     45491.74484003   -45527.76396172
  entropy T*S    EENTRO =        -0.01642021
  eigenvalues    EBANDS =     -4380.28301838
  atomic energy  EATOM  =     16211.82620523
  Solvation  Ediel_sol  =         0.00000000
  ---------------------------------------------------
  free energy    TOTEN  =      -854.44436930 eV

  energy without entropy =     -854.42794909  energy(sigma->0) =     -854.43615919


--------------------------------------------------------------------------------------------------------




--------------------------------------- Iteration      1(  16)  ---------------------------------------


    POTLOK:  cpu time    0.1786: real time    0.1823
    SETDIJ:  cpu time    0.1357: real time    0.1401
    EDDIAG:  cpu time    0.3130: real time    0.3138
  RMM-DIIS:  cpu time    1.0061: real time    1.0161
    ORTHCH:  cpu time    0.0220: real time    0.0220
       DOS:  cpu time    0.0003: real time    0.0003
    CHARGE:  cpu time    1.1565: real time    1.1640
    MIXING:  cpu time    0.0085: real time    0.0086
    --------------------------------------------
      LOOP:  cpu time    2.8207: real time    2.8474

 eigenvalue-minimisations  :   982
 total energy-change (2. order) :-0.1115743E-01  (-0.1980157E-03)
 number of electron     390.0000013 magnetization      -0.0000000
 augmentation part       11.5027668 magnetization       0.0000257

 Broyden mixing:
  rms(total) = 0.13609E-01    rms(broyden)= 0.13608E-01
  rms(prec ) = 0.17816E-01
  weight for this iteration     100.00

 eigenvalues of (default mixing * dielectric matrix)
  average eigenvalue GAMMA=   1.8535
  6.1699  3.0837  2.5020  1.9492  1.5684  1.0874  1.0874  0.8224  0.8224  0.6657
  0.6297

 Free energy of the ion-electron system (eV)
  ---------------------------------------------------
  alpha Z        PSCENC =       199.96740644
  Ewald energy   TEWEN  =     42702.76983941
  -Hartree energ DENC   =    -56935.71961395
  -exchange      EXHF   =         0.00000000
  -V(xc)+E(xc)   XCENC  =      1377.24305053
  PAW double counting   =     45512.92413648   -45548.94892294
  entropy T*S    EENTRO =        -0.01721396
  eigenvalues    EBANDS =     -4374.50041395
  atomic energy  EATOM  =     16211.82620523
  Solvation  Ediel_sol  =         0.00000000
  ---------------------------------------------------
  free energy    TOTEN  =      -854.45552672 eV

  energy without entropy =     -854.43831276  energy(sigma->0) =     -854.44691974


--------------------------------------------------------------------------------------------------------




--------------------------------------- Iteration      1(  17)  ---------------------------------------


    POTLOK:  cpu time    0.1742: real time    0.1749
    SETDIJ:  cpu time    0.1307: real time    0.1387
    EDDIAG:  cpu time    0.3210: real time    0.3227
  RMM-DIIS:  cpu time    1.0144: real time    1.0240
    ORTHCH:  cpu time    0.0217: real time    0.0217
       DOS:  cpu time    0.0003: real time    0.0003
    CHARGE:  cpu time    1.1539: real time    1.1665
    MIXING:  cpu time    0.0075: real time    0.0075
    --------------------------------------------
      LOOP:  cpu time    2.8238: real time    2.8563

 eigenvalue-minimisations  :   980
 total energy-change (2. order) :-0.7484280E-02  (-0.2011641E-03)
 number of electron     390.0000013 magnetization      -0.0000000
 augmentation part       11.5001347 magnetization       0.0000187

 Broyden mixing:
  rms(total) = 0.42806E-02    rms(broyden)= 0.42189E-02
  rms(prec ) = 0.69907E-02
  weight for this iteration     100.00

 eigenvalues of (default mixing * dielectric matrix)
  average eigenvalue GAMMA=   1.8631
  6.6568  3.5100  2.3543  2.2343  1.4779  1.0645  1.0645  0.9019  0.9019  0.8930
  0.6729  0.6248

 Free energy of the ion-electron system (eV)
  ---------------------------------------------------
  alpha Z        PSCENC =       199.96740644
  Ewald energy   TEWEN  =     42702.76983941
  -Hartree energ DENC   =    -56940.10080970
  -exchange      EXHF   =         0.00000000
  -V(xc)+E(xc)   XCENC  =      1377.24522838
  PAW double counting   =     45505.23523778   -45541.26161757
  entropy T*S    EENTRO =        -0.01924988
  eigenvalues    EBANDS =     -4370.12525109
  atomic energy  EATOM  =     16211.82620523
  Solvation  Ediel_sol  =         0.00000000
  ---------------------------------------------------
  free energy    TOTEN  =      -854.46301100 eV

  energy without entropy =     -854.44376113  energy(sigma->0) =     -854.45338607


--------------------------------------------------------------------------------------------------------




--------------------------------------- Iteration      1(  18)  ---------------------------------------


    POTLOK:  cpu time    0.1720: real time    0.1746
    SETDIJ:  cpu time    0.1323: real time    0.1326
    EDDIAG:  cpu time    0.3419: real time    0.3502
  RMM-DIIS:  cpu time    1.0022: real time    1.0132
    ORTHCH:  cpu time    0.0220: real time    0.0221
       DOS:  cpu time    0.0003: real time    0.0003
    CHARGE:  cpu time    1.1601: real time    1.1685
    MIXING:  cpu time    0.0079: real time    0.0079
    --------------------------------------------
      LOOP:  cpu time    2.8386: real time    2.8696

 eigenvalue-minimisations  :   980
 total energy-change (2. order) :-0.5842037E-02  (-0.8614938E-04)
 number of electron     390.0000013 magnetization       0.0000000
 augmentation part       11.4983888 magnetization      -0.0000015

 Broyden mixing:
  rms(total) = 0.28967E-02    rms(broyden)= 0.28952E-02
  rms(prec ) = 0.44339E-02
  weight for this iteration     100.00

 eigenvalues of (default mixing * dielectric matrix)
  average eigenvalue GAMMA=   1.9104
  7.0188  3.9825  2.3610  2.3610  1.6532  1.4818  1.0955  1.0955  0.8359  0.8359
  0.8226  0.6683  0.6230

 Free energy of the ion-electron system (eV)
  ---------------------------------------------------
  alpha Z        PSCENC =       199.96740644
  Ewald energy   TEWEN  =     42702.76983941
  -Hartree energ DENC   =    -56941.86651771
  -exchange      EXHF   =         0.00000000
  -V(xc)+E(xc)   XCENC  =      1377.24055959
  PAW double counting   =     45495.06516507   -45531.08722564
  entropy T*S    EENTRO =        -0.01880765
  eigenvalues    EBANDS =     -4368.36547777
  atomic energy  EATOM  =     16211.82620523
  Solvation  Ediel_sol  =         0.00000000
  ---------------------------------------------------
  free energy    TOTEN  =      -854.46885304 eV

  energy without entropy =     -854.45004539  energy(sigma->0) =     -854.45944921


--------------------------------------------------------------------------------------------------------




--------------------------------------- Iteration      1(  19)  ---------------------------------------


    POTLOK:  cpu time    0.1774: real time    0.1822
    SETDIJ:  cpu time    0.1342: real time    0.1406
    EDDIAG:  cpu time    0.4445: real time    0.4709
  RMM-DIIS:  cpu time    1.0258: real time    1.0324
    ORTHCH:  cpu time    0.0219: real time    0.0220
       DOS:  cpu time    0.0003: real time    0.0003
    CHARGE:  cpu time    1.1620: real time    1.1692
    MIXING:  cpu time    0.0078: real time    0.0079
    --------------------------------------------
      LOOP:  cpu time    2.9741: real time    3.0254

 eigenvalue-minimisations  :   980
 total energy-change (2. order) :-0.3858598E-02  (-0.3241386E-04)
 number of electron     390.0000013 magnetization       0.0000000
 augmentation part       11.4985504 magnetization       0.0000072

 Broyden mixing:
  rms(total) = 0.15799E-02    rms(broyden)= 0.15765E-02
  rms(prec ) = 0.22413E-02
  weight for this iteration     100.00

 eigenvalues of (default mixing * dielectric matrix)
  average eigenvalue GAMMA=   2.0078
  7.3907  5.0592  2.7471  2.3095  2.3095  1.3741  1.1058  1.1058  0.9924  0.8668
  0.8668  0.6980  0.6619  0.6212

 Free energy of the ion-electron system (eV)
  ---------------------------------------------------
  alpha Z        PSCENC =       199.96740644
  Ewald energy   TEWEN  =     42702.76983941
  -Hartree energ DENC   =    -56943.58057988
  -exchange      EXHF   =         0.00000000
  -V(xc)+E(xc)   XCENC  =      1377.24037185
  PAW double counting   =     45496.76030700   -45532.78352234
  entropy T*S    EENTRO =        -0.01908319
  eigenvalues    EBANDS =     -4366.65365617
  atomic energy  EATOM  =     16211.82620523
  Solvation  Ediel_sol  =         0.00000000
  ---------------------------------------------------
  free energy    TOTEN  =      -854.47271164 eV

  energy without entropy =     -854.45362845  energy(sigma->0) =     -854.46317005


--------------------------------------------------------------------------------------------------------




--------------------------------------- Iteration      1(  20)  ---------------------------------------


    POTLOK:  cpu time    0.1738: real time    0.1750
    SETDIJ:  cpu time    0.1321: real time    0.1332
    EDDIAG:  cpu time    0.3303: real time    0.3367
  RMM-DIIS:  cpu time    1.0122: real time    1.0200
    ORTHCH:  cpu time    0.0221: real time    0.0222
       DOS:  cpu time    0.0003: real time    0.0003
    CHARGE:  cpu time    1.1573: real time    1.1669
    MIXING:  cpu time    0.0077: real time    0.0077
    --------------------------------------------
      LOOP:  cpu time    2.8357: real time    2.8619

 eigenvalue-minimisations  :   982
 total energy-change (2. order) :-0.1434970E-02  (-0.1036922E-04)
 number of electron     390.0000013 magnetization       0.0000000
 augmentation part       11.4990109 magnetization       0.0000035

 Broyden mixing:
  rms(total) = 0.94530E-03    rms(broyden)= 0.94496E-03
  rms(prec ) = 0.12609E-02
  weight for this iteration     100.00

 eigenvalues of (default mixing * dielectric matrix)
  average eigenvalue GAMMA=   2.0433
  7.9101  5.5768  3.0311  2.3279  2.3279  1.3993  1.3993  1.0995  1.0995  0.8292
  0.8292  0.8722  0.6202  0.6743  0.6532

 Free energy of the ion-electron system (eV)
  ---------------------------------------------------
  alpha Z        PSCENC =       199.96740644
  Ewald energy   TEWEN  =     42702.76983941
  -Hartree energ DENC   =    -56944.22230614
  -exchange      EXHF   =         0.00000000
  -V(xc)+E(xc)   XCENC  =      1377.24078642
  PAW double counting   =     45496.99890075   -45533.02270597
  entropy T*S    EENTRO =        -0.01902139
  eigenvalues    EBANDS =     -4366.01325135
  atomic energy  EATOM  =     16211.82620523
  Solvation  Ediel_sol  =         0.00000000
[...]
   0.489E+00 0.376E+01 0.162E-05   -.380E+00 -.380E+01 0.298E-16   -.107E+00 0.328E-01 0.000E+00   -.375E-04 -.286E-04 -.226E-12
   0.350E+01 -.146E+01 -.166E-05   -.348E+01 0.157E+01 0.200E-16   -.252E-01 -.109E+00 0.000E+00   -.435E-04 -.182E-04 -.865E-13
 -----------------------------------------------------------------------------------------------
   0.823E-01 0.476E-01 -.229E-05   -.224E-12 -.276E-12 -.320E-16   -.984E-01 -.568E-01 0.000E+00   -.134E-04 -.774E-05 -.117E-10
 
 
 POSITION                                       TOTAL-FORCE (eV/Angst)
 -----------------------------------------------------------------------------------
      1.24851      0.78359      0.00000         0.003276     -0.002538      0.000000
      2.54427     -1.44622      0.00000        -0.002558     -0.003905      0.000000
      3.77116     -3.57125      0.00000        -0.004661     -0.000263      0.000000
      5.05436     -5.80832      0.00000        -0.000560      0.004107      0.000000
      6.26766     -7.95843      0.00000        -0.003385      0.001161      0.000000
      7.50552    -10.10617      0.00000         0.000906      0.000523      0.000000
      8.74659    -12.25206      0.00000        -0.000687     -0.003512      0.000000
      2.50983      2.91212      0.00000         0.001937     -0.005319      0.000000
      3.75826      0.73043      0.00000         0.003853     -0.001658      0.000000
      5.03561     -1.42454      0.00000         0.004859      0.002805      0.000000
      6.26319     -3.60823      0.00000         0.000490      0.004165      0.000000
      7.52837     -5.78025      0.00000        -0.003638      0.004337      0.000000
      8.76252     -7.94295      0.00000        -0.005408     -0.000094      0.000000
     10.00742    -10.09918      0.00000        -0.002785     -0.004636      0.000000
      3.75488      5.06214      0.00000         0.000031     -0.002074      0.000000
      5.00479      2.89498      0.00000         0.002886      0.000373      0.000000
      6.26203      0.73170      0.00000         0.004236      0.000371      0.000000
      7.51617     -1.44054      0.00000         0.002439      0.003483      0.000000
      8.76101     -3.61098      0.00000         0.001766      0.002314      0.000000
     10.01287     -5.77702      0.00000        -0.001781      0.001064      0.000000
     11.25712     -7.94019      0.00000        -0.001323     -0.000764      0.000000
      4.99819      7.21784      0.00000        -0.002322     -0.000238      0.000000
      6.25046      5.05306      0.00000         0.000669     -0.000494      0.000000
      7.50429      2.88938      0.00000        -0.001407      0.000053      0.000000
      8.75700      0.72401      0.00000         0.002326      0.001343      0.000000
     10.00591     -1.44356      0.00000        -0.000658     -0.001245      0.000000
     11.25280     -3.61124      0.00000        -0.000093      0.000826      0.000000
     12.50141     -5.77813      0.00000        -0.001367     -0.001892      0.000000
      6.23552      9.37587      0.00000        -0.006269     -0.003619      0.000000
      7.49305      7.21208      0.00000        -0.003567     -0.000508      0.000000
      8.74753      5.04596      0.00000        -0.005865      0.005459      0.000000
     10.00364      2.88689      0.00000         0.002968     -0.002157      0.000000
     11.25343      0.72220      0.00000        -0.000384      0.003649      0.000000
     12.49518     -1.44517      0.00000         0.001796     -0.007809      0.000000
     13.74386     -3.61464      0.00000        -0.002223     -0.002835      0.000000
      7.48070     11.53180      0.00000        -0.002600     -0.005608      0.000000
      8.72520      9.37626      0.00000        -0.006156      0.000552      0.000000
      9.98579      7.20011      0.00000         0.000316      0.004700      0.000000
     11.25069      5.04958      0.00000         0.004637      0.005319      0.000000
     12.50326      2.88691      0.00000         0.006755      0.003900      0.000000
     13.74990      0.72082      0.00000         0.006925      0.001356      0.000000
     14.97986     -1.44987      0.00000         0.004228     -0.002077      0.000000
      8.70190     13.68917      0.00000         0.000112     -0.000718      0.000000
      9.99283     11.54516      0.00000        -0.001226     -0.000708      0.000000
     11.20413      9.35518      0.00000        -0.000566      0.000456      0.000000
     12.50593      7.21576      0.00000        -0.002787      0.000599      0.000000
     13.75720      5.05128      0.00000        -0.000321     -0.000487      0.000000
     15.00463      2.89068      0.00000        -0.000582     -0.000034      0.000000
     16.25349      0.72480      0.00000        -0.000874     -0.002713      0.000000
      2.51513     -2.87974      0.00000        -0.000357     -0.000206      0.000000
      5.02429     -7.24755      0.00000         0.001301      0.003781      0.000000
      6.25735     -9.39547      0.00000         0.000524      0.002412      0.000000
      7.49691    -11.54247      0.00000         0.002350     -0.000752      0.000000
      8.74055    -13.68429      0.00000         0.003925     -0.000763      0.000000
      2.51114      1.47740      0.00000        -0.003696     -0.002730      0.000000
      3.78880     -0.71190      0.00000         0.005415     -0.003044      0.000000
      5.02937     -2.86062      0.00000         0.000071      0.006211      0.000000
      6.28652     -5.06176      0.00000        -0.004213     -0.001836      0.000000
      7.51412     -7.22503      0.00000        -0.006838      0.001812      0.000000
      8.75672     -9.38379      0.00000        -0.007616     -0.004397      0.000000
     10.00496    -11.53930      0.00000        -0.001850     -0.006828      0.000000
      3.75915      3.62461      0.00000         0.001687     -0.004875      0.000000
      5.00787      1.45261      0.00000         0.003601     -0.002550      0.000000
      6.27878     -0.70679      0.00000         0.005756      0.003323      0.000000
      7.51342     -2.88713      0.00000        -0.000408      0.004393      0.000000
      8.77007     -5.05456      0.00000        -0.003379      0.003898      0.000000
     10.00938     -7.21967      0.00000        -0.001093     -0.001618      0.000000
     11.25723     -9.38101      0.00000        -0.001948     -0.000137      0.000000
      5.00306      5.77787      0.00000         0.000316     -0.000052      0.000000
      6.25475      3.61179      0.00000         0.002352     -0.001407      0.000000
      7.50980      1.44959      0.00000         0.005424      0.001956      0.000000
      8.76177     -0.71888      0.00000         0.004406      0.003719      0.000000
     10.00676     -2.88689      0.00000        -0.000043      0.002740      0.000000
     11.25680     -5.05393      0.00000         0.000113      0.000299      0.000000
     12.50414     -7.22022      0.00000        -0.004001     -0.002310      0.000000
      6.24459      7.93481      0.00000        -0.006074      0.001559      0.000000
      7.49946      5.77042      0.00000        -0.001749     -0.001897      0.000000
      8.75332      3.60634      0.00000         0.005921      0.001880      0.000000
     10.00604      1.44514      0.00000         0.000626      0.000362      0.000000
     11.25133     -0.72034      0.00000         0.004589      0.004188      0.000000
     12.49855     -2.88825      0.00000        -0.002518     -0.000566      0.000000
     13.74553     -5.05720      0.00000        -0.001687     -0.006040      0.000000
      7.47718     10.09274      0.00000        -0.003784     -0.002185      0.000000
      8.74054      7.93048      0.00000         0.000096      0.002065      0.000000
      9.99610      5.76181      0.00000         0.000150     -0.003088      0.000000
     11.25397      3.60816      0.00000        -0.002145      0.002470      0.000000
     12.50323      1.44438      0.00000         0.001067     -0.003093      0.000000
     13.73941     -0.72180      0.00000        -0.002599      0.001674      0.000000
     14.98975     -2.89348      0.00000         0.001836     -0.000949      0.000000
      8.72470     12.24604      0.00000        -0.001656     -0.005230      0.000000
      9.96575     10.09648      0.00000        -0.005358      0.001181      0.000000
     11.23243      7.91746      0.00000        -0.001878      0.003010      0.000000
     12.50386      5.77375      0.00000         0.004628      0.008680      0.000000
     13.75388      3.60896      0.00000         0.005109      0.002950      0.000000
     15.00363      1.44402      0.00000         0.009831     -0.000332      0.000000
     16.22442     -0.72893      0.00000         0.001668     -0.003131      0.000000
      1.24586     -0.71179      0.00000         0.001979     -0.002540      0.000000
      3.75799     -5.06293      0.00000        -0.001210      0.002984      0.000000
 -----------------------------------------------------------------------------------
    total drift:                               -0.016135     -0.009225     -0.000002


--------------------------------------------------------------------------------------------------------



  FREE ENERGIE OF THE ION-ELECTRON SYSTEM (eV)
  ---------------------------------------------------
  free  energy   TOTEN  =      -854.47523198 eV

  energy  without entropy=     -854.45628650  energy(sigma->0) =     -854.46575924
 


--------------------------------------------------------------------------------------------------------


    POTLOK:  cpu time    0.3103: real time    0.3124


--------------------------------------------------------------------------------------------------------




--------------------------------------------------------------------------------------------------------


  
 reached required accuracy - stopping structural energy minimisation
 writing wavefunctions
     LOOP+:  cpu time   84.6390: real time   85.7707
    4ORBIT:  cpu time    0.0000: real time    0.0000
 


 total charge     
 
# of ion       s       p       d       tot
------------------------------------------
    1        0.765   1.458   0.000   2.223
    2        0.767   1.466   0.000   2.232
    3        0.767   1.465   0.000   2.232
    4        0.765   1.458   0.000   2.223
    5        0.753   1.451   0.000   2.204
    6        0.752   1.447   0.000   2.199
    7        0.754   1.451   0.000   2.204
    8        0.753   1.449   0.000   2.202
    9        0.746   1.424   0.000   2.170
   10        0.757   1.458   0.000   2.214
   11        0.746   1.424   0.000   2.170
   12        0.753   1.448   0.000   2.201
   13        0.751   1.443   0.000   2.194
   14        0.751   1.443   0.000   2.194
   15        0.752   1.445   0.000   2.197
   16        0.749   1.437   0.000   2.187
   17        0.750   1.440   0.000   2.190
   18        0.750   1.440   0.000   2.190
   19        0.749   1.437   0.000   2.187
   20        0.752   1.445   0.000   2.197
   21        0.751   1.443   0.000   2.194
   22        0.752   1.444   0.000   2.196
   23        0.750   1.440   0.000   2.190
   24        0.750   1.441   0.000   2.191
   25        0.749   1.436   0.000   2.185
   26        0.750   1.441   0.000   2.191
   27        0.750   1.440   0.000   2.190
   28        0.752   1.444   0.000   2.196
   29        0.753   1.448   0.000   2.201
   30        0.750   1.441   0.000   2.191
   31        0.751   1.442   0.000   2.193
   32        0.749   1.437   0.000   2.186
   33        0.749   1.437   0.000   2.186
   34        0.751   1.442   0.000   2.193
   35        0.750   1.441   0.000   2.191
   36        0.752   1.446   0.000   2.199
   37        0.752   1.446   0.000   2.198
   38        0.752   1.445   0.000   2.197
   39        0.748   1.432   0.000   2.181
   40        0.749   1.434   0.000   2.183
   41        0.748   1.432   0.000   2.181
   42        0.752   1.445   0.000   2.197
   43        0.764   1.444   0.000   2.208
   44        0.740   1.384   0.000   2.125
   45        0.764   1.444   0.000   2.208
   46        0.745   1.415   0.000   2.159
   47        0.748   1.433   0.000   2.180
   48        0.748   1.433   0.000   2.181
   49        0.745   1.415   0.000   2.160
   50        1.248   2.709   0.000   3.957
   51        1.244   2.739   0.000   3.982
   52        1.241   2.752   0.000   3.993
   53        1.241   2.752   0.000   3.993
   54        1.244   2.739   0.000   3.982
   55        1.244   2.733   0.000   3.977
   56        1.242   2.741   0.000   3.984
   57        1.242   2.741   0.000   3.984
   58        1.244   2.733   0.000   3.977
   59        1.241   2.741   0.000   3.981
   60        1.240   2.746   0.000   3.986
   61        1.241   2.741   0.000   3.981
   62        1.241   2.750   0.000   3.991
   63        1.240   2.741   0.000   3.982
   64        1.242   2.754   0.000   3.996
   65        1.240   2.741   0.000   3.982
   66        1.241   2.751   0.000   3.991
   67        1.240   2.748   0.000   3.988
   68        1.240   2.748   0.000   3.988
   69        1.240   2.749   0.000   3.990
   70        1.240   2.747   0.000   3.987
   71        1.241   2.748   0.000   3.989
   72        1.241   2.748   0.000   3.989
   73        1.240   2.747   0.000   3.987
   74        1.241   2.749   0.000   3.990
   75        1.240   2.748   0.000   3.988
   76        1.241   2.749   0.000   3.990
   77        1.240   2.747   0.000   3.987
   78        1.241   2.749   0.000   3.989
   79        1.240   2.747   0.000   3.987
   80        1.241   2.749   0.000   3.989
   81        1.240   2.747   0.000   3.987
   82        1.241   2.749   0.000   3.990
   83        1.242   2.754   0.000   3.996
   84        1.240   2.744   0.000   3.984
   85        1.241   2.750   0.000   3.991
   86        1.240   2.746   0.000   3.986
   87        1.240   2.746   0.000   3.986
   88        1.241   2.750   0.000   3.991
   89        1.240   2.744   0.000   3.984
   90        1.242   2.740   0.000   3.983
   91        1.242   2.740   0.000   3.983
   92        1.243   2.733   0.000   3.976
   93        1.240   2.738   0.000   3.978
   94        1.240   2.744   0.000   3.984
   95        1.240   2.738   0.000   3.978
   96        1.243   2.733   0.000   3.976
   97        0.896   1.756   0.000   2.651
   98        0.896   1.756   0.000   2.651
--------------------------------------------------
tot         96.978 203.077   0.000 300.054
 


 magnetization (x)
 
# of ion       s       p       d       tot
------------------------------------------
    1       -0.000  -0.000   0.000  -0.000
    2       -0.000  -0.000   0.000  -0.000
    3       -0.000  -0.000   0.000  -0.000
    4       -0.000  -0.000   0.000  -0.000
    5       -0.000  -0.000   0.000  -0.000
    6       -0.000  -0.000   0.000  -0.000
    7       -0.000  -0.000   0.000  -0.000
    8        0.000  -0.000   0.000   0.000
    9        0.000  -0.000   0.000  -0.000
   10        0.000   0.000   0.000   0.000
   11        0.000  -0.000   0.000  -0.000
   12        0.000   0.000   0.000   0.000
   13       -0.000  -0.000   0.000  -0.000
   14       -0.000   0.000   0.000  -0.000
   15        0.000  -0.000   0.000  -0.000
   16        0.000  -0.000   0.000   0.000
   17       -0.000  -0.000   0.000  -0.000
   18       -0.000  -0.000   0.000  -0.000
   19        0.000  -0.000   0.000   0.000
   20        0.000  -0.000   0.000  -0.000
   21       -0.000  -0.000   0.000  -0.000
   22       -0.000  -0.000   0.000  -0.000
   23        0.000   0.000   0.000   0.000
   24        0.000  -0.000   0.000  -0.000
   25       -0.000  -0.000   0.000  -0.000
   26        0.000  -0.000   0.000  -0.000
   27        0.000   0.000   0.000   0.000
   28       -0.000  -0.000   0.000  -0.000
   29       -0.000  -0.000   0.000  -0.000
   30       -0.000  -0.000   0.000  -0.000
   31       -0.000   0.000   0.000  -0.000
   32       -0.000  -0.000   0.000  -0.000
   33       -0.000  -0.000   0.000  -0.000
   34       -0.000   0.000   0.000   0.000
   35       -0.000  -0.000   0.000  -0.000
   36       -0.000  -0.000   0.000  -0.000
   37       -0.000  -0.000   0.000  -0.000
   38        0.000   0.000   0.000   0.000
   39       -0.000   0.000   0.000   0.000
   40       -0.000  -0.000   0.000  -0.000
   41       -0.000   0.000   0.000   0.000
   42        0.000   0.000   0.000   0.000
   43       -0.000   0.000   0.000   0.000
   44        0.000   0.000   0.000   0.000
   45       -0.000   0.000   0.000   0.000
   46       -0.000   0.000   0.000  -0.000
   47        0.000  -0.000   0.000   0.000
   48        0.000  -0.000   0.000  -0.000
   49       -0.000  -0.000   0.000  -0.000
   50        0.000   0.000   0.000   0.000
   51        0.000   0.000   0.000   0.000
   52        0.000   0.000   0.000   0.000
   53        0.000   0.000   0.000   0.000
   54        0.000  -0.000   0.000   0.000
   55       -0.000   0.000   0.000   0.000
   56       -0.000  -0.000   0.000  -0.000
   57       -0.000  -0.000   0.000  -0.000
   58        0.000   0.000   0.000   0.000
   59        0.000   0.000   0.000   0.000
   60        0.000   0.000   0.000   0.000
   61        0.000   0.000   0.000   0.000
   62        0.000   0.000   0.000   0.000
   63        0.000  -0.000   0.000  -0.000
   64        0.000   0.000   0.000   0.000
   65        0.000  -0.000   0.000  -0.000
   66        0.000   0.000   0.000   0.000
   67       -0.000   0.000   0.000   0.000
   68        0.000   0.000   0.000   0.000
   69        0.000   0.000   0.000   0.000
   70       -0.000  -0.000   0.000  -0.000
   71       -0.000   0.000   0.000   0.000
   72       -0.000   0.000   0.000   0.000
   73       -0.000  -0.000   0.000  -0.000
   74        0.000   0.000   0.000   0.000
   75        0.000   0.000   0.000   0.000
   76        0.000   0.000   0.000   0.000
   77       -0.000  -0.000   0.000  -0.000
   78        0.000   0.000   0.000   0.000
   79        0.000   0.000   0.000   0.000
   80        0.000   0.000   0.000   0.000
   81       -0.000  -0.000   0.000  -0.000
   82        0.000   0.000   0.000   0.000
   83       -0.000   0.000   0.000  -0.000
   84        0.000  -0.000   0.000  -0.000
   85       -0.000  -0.000   0.000  -0.000
   86        0.000   0.000   0.000   0.000
   87        0.000   0.000   0.000   0.000
   88       -0.000  -0.000   0.000  -0.000
   89        0.000  -0.000   0.000  -0.000
   90       -0.000  -0.000   0.000  -0.000
   91       -0.000  -0.000   0.000  -0.000
   92        0.000   0.000   0.000   0.000
   93       -0.000  -0.000   0.000  -0.000
   94        0.000   0.000   0.000   0.000
   95       -0.000  -0.000   0.000  -0.000
   96        0.000   0.000   0.000   0.000
   97        0.000   0.000   0.000   0.000
   98        0.000   0.000   0.000   0.000
--------------------------------------------------
tot         -0.000  -0.000   0.000  -0.000
 

 total amount of memory used by VASP MPI-rank0    71260. kBytes
=======================================================================

   base      :      30000. kBytes
   nonlr-proj:        439. kBytes
   fftplans  :      19250. kBytes
   grid      :      14538. kBytes
   one-center:          9. kBytes
   wavefun   :       7024. kBytes
 
  
  
 General timing and accounting informations for this job:
 ========================================================
  
                  Total CPU time used (sec):       91.810
                            User time (sec):       88.516
                          System time (sec):        3.294
                         Elapsed time (sec):       93.832
  
                   Maximum memory used (kb):      490328.
                   Average memory used (kb):           0.
  
                          Minor page faults:       109324
                          Major page faults:            2
                 Voluntary context switches:         5438
