 vasp.5.4.4.18Apr17-6-g9f103f2a35 (build Oct 26 2020 23:36:47) complex          
  
 executed on             LinuxIFC date 2022.01.27  17:18:23
 running on   44 total cores
 distrk:  each k-point on   44 cores,    1 groups
 distr:  one band on NCORES_PER_BAND=  22 cores,    2 groups


--------------------------------------------------------------------------------------------------------


 INCAR:
 POTCAR:   PAW_PBE Bi 08Apr2002                   
 POTCAR:   PAW_PBE Se 06Sep2000                   

 ----------------------------------------------------------------------------- 
|                                                                             |
|           W    W    AA    RRRRR   N    N  II  N    N   GGGG   !!!           |
|           W    W   A  A   R    R  NN   N  II  NN   N  G    G  !!!           |
|           W    W  A    A  R    R  N N  N  II  N N  N  G       !!!           |
|           W WW W  AAAAAA  RRRRR   N  N N  II  N  N N  G  GGG   !            |
|           WW  WW  A    A  R   R   N   NN  II  N   NN  G    G                |
|           W    W  A    A  R    R  N    N  II  N    N   GGGG   !!!           |
|                                                                             |
|      For optimal performance we recommend to set                            |
|        NCORE= 4 - approx SQRT( number of cores)                             |
|      NCORE specifies how many cores store one orbital (NPAR=cpu/NCORE).     |
|      This setting can  greatly improve the performance of VASP for DFT.     |
|      The default,   NCORE=1            might be grossly inefficient         |
|      on modern multi-core architectures or massively parallel machines.     |
|      Do your own testing !!!!                                               |
|      Unfortunately you need to use the default for GW and RPA calculations. |
|      (for HF NCORE is supported but not extensively tested yet)             |
|                                                                             |
 ----------------------------------------------------------------------------- 

 POTCAR:   PAW_PBE Bi 08Apr2002                   
   VRHFIN =Bi:                                                                  
   LEXCH  = PE                                                                  
   EATOM  =   150.8132 eV,   11.0845 Ry                                         
                                                                                
   TITEL  = PAW_PBE Bi 08Apr2002                                                
   LULTRA =        F    use ultrasoft PP ?                                      
   IUNSCR =        1    unscreen: 0-lin 1-nonlin 2-no                           
   RPACOR =    2.200    partial core radius                                     
   POMASS =  208.980; ZVAL   =    5.000    mass and valenz                      
   RCORE  =    3.000    outmost cutoff radius                                   
   RWIGS  =    3.090; RWIGS  =    1.635    wigner-seitz radius (au A)           
   ENMAX  =  105.037; ENMIN  =   78.777 eV                                      
   ICORE  =        3    local potential                                         
   LCOR   =        T    correct aug charges                                     
   LPAW   =        T    paw PP                                                  
   EAUG   =  265.427                                                            
   DEXC   =    -.112                                                            
   RMAX   =    4.499    core radius for proj-oper                               
   RAUG   =    1.300    factor for augmentation sphere                          
   RDEP   =    3.012    radius for radial grids                                 
   QCUT   =   -2.778; QGAM   =    5.557    optimization parameters              
                                                                                
   Description                                                                  
     l     E      TYP  RCUT    TYP  RCUT                                        
     0   .000     23  3.000                                                     
     0  -.900     23  3.000                                                     
     1   .000     23  3.000                                                     
     1 -1.000     23  3.000                                                     
     2  -.200     23  3.000                                                     
     3  -.100      7  3.000                                                     
  local pseudopotential read in
  partial core-charges read in
  atomic valenz-charges read in
  non local Contribution for L=           0  read in
    real space projection operators read in
  non local Contribution for L=           0  read in
    real space projection operators read in
  non local Contribution for L=           1  read in
    real space projection operators read in
  non local Contribution for L=           1  read in
    real space projection operators read in
  non local Contribution for L=           2  read in
    real space projection operators read in
    PAW grid and wavefunctions read in
 
   number of l-projection  operators is LMAX  =           5
   number of lm-projection operators is LMMAX =          13
 
 POTCAR:   PAW_PBE Se 06Sep2000                   
   VRHFIN =Se: s2p4                                                             
   LEXCH  = PE                                                                  
   EATOM  =   256.9644 eV,   18.8864 Ry                                         
                                                                                
   TITEL  = PAW_PBE Se 06Sep2000                                                
   LULTRA =        F    use ultrasoft PP ?                                      
   IUNSCR =        1    unscreen: 0-lin 1-nonlin 2-no                           
   RPACOR =    1.900    partial core radius                                     
   POMASS =   78.960; ZVAL   =    6.000    mass and valenz                      
   RCORE  =    2.100    outmost cutoff radius                                   
   RWIGS  =    2.200; RWIGS  =    1.164    wigner-seitz radius (au A)           
   ENMAX  =  211.534; ENMIN  =  158.651 eV                                      
   ICORE  =        3    local potential                                         
   LCOR   =        T    correct aug charges                                     
   LPAW   =        T    paw PP                                                  
   EAUG   =  446.842                                                            
   DEXC   =    -.031                                                            
   RMAX   =    3.170    core radius for proj-oper                               
   RAUG   =    1.300    factor for augmentation sphere                          
   RDEP   =    2.177    radius for radial grids                                 
   QCUT   =   -3.943; QGAM   =    7.886    optimization parameters              
                                                                                
   Description                                                                  
     l     E      TYP  RCUT    TYP  RCUT                                        
     0   .000     23  2.100                                                     
     0   .000     23  2.100                                                     
     1   .000     23  2.100                                                     
     1   .000     23  2.100                                                     
     2   .000     23  2.100                                                     
     3  -.100      7  2.100                                                     
  local pseudopotential read in
  partial core-charges read in
  atomic valenz-charges read in
  non local Contribution for L=           0  read in
    real space projection operators read in
  non local Contribution for L=           0  read in
    real space projection operators read in
  non local Contribution for L=           1  read in
    real space projection operators read in
  non local Contribution for L=           1  read in
    real space projection operators read in
  non local Contribution for L=           2  read in
    real space projection operators read in
    PAW grid and wavefunctions read in
 
   number of l-projection  operators is LMAX  =           5
   number of lm-projection operators is LMMAX =          13
 
 PAW_PBE Bi 08Apr2002                   :
 energy of atom  1       EATOM= -150.8132
 kinetic energy error for atom=    0.0001 (will be added to EATOM!!)
 PAW_PBE Se 06Sep2000                   :
 energy of atom  2       EATOM= -256.9644
 kinetic energy error for atom=    0.0020 (will be added to EATOM!!)
 
 
 POSCAR: Bi S                                    
  positions in direct lattice
  velocities in cartesian coordinates
 exchange correlation table for  LEXCH =        8
   RHO(1)=    0.500       N(1)  =     2000
   RHO(2)=  100.500       N(2)  =     4000
 


--------------------------------------------------------------------------------------------------------


 ion  position               nearest neighbor table
   1  0.645  0.645  0.020-   3 2.71   6 2.96   6 2.96   4 3.00   4 3.00
   2  0.355  0.355  0.980-   6 2.71   3 2.96   3 2.96   5 3.00   5 3.00
   3  0.753  0.753  0.914-   1 2.71   2 2.96   2 2.96
   4  0.043  0.043  0.950-   5 2.40   1 3.00   1 3.00
   5  0.957  0.957  0.050-   4 2.40   2 3.00   2 3.00
   6  0.247  0.247  0.086-   2 2.71   1 2.96   1 2.96
 
  LATTYP: Found a base centered orthorhombic cell.
 ALAT       =     4.2460580973
 B/A-ratio  =     3.7131933512
 C/A-ratio  =     4.6770537971
  
  Lattice vectors:
  
 A1 = (   7.8832173478,  -2.1230290486,   0.0000000000)
 A2 = (  -7.8832173478,  -2.1230290486,   0.0000000000)
 A3 = (   0.0000000000,   0.0000000000, -19.8590421464)


Analysis of symmetry for initial positions (statically):
=====================================================================
 Subroutine PRICEL returns:
 Original cell was already a primitive cell.
 

 Routine SETGRP: Setting up the symmetry group for a 
 base centered orthorhombic supercell.


 Subroutine GETGRP returns: Found  4 space group operations
 (whereof  4 operations were pure point group operations)
 out of a pool of  8 trial point group operations.


The static configuration has the point symmetry C_2h.


Analysis of symmetry for dynamics (positions and initial velocities):
=====================================================================
 Subroutine PRICEL returns:
 Original cell was already a primitive cell.
 

 Routine SETGRP: Setting up the symmetry group for a 
 base centered orthorhombic supercell.


 Subroutine GETGRP returns: Found  4 space group operations
 (whereof  4 operations were pure point group operations)
 out of a pool of  8 trial point group operations.


The dynamic configuration has the point symmetry C_2h.


Analysis of structural, dynamic, and magnetic symmetry:
=====================================================================
 Subroutine PRICEL returns:
 Original cell was already a primitive cell.
 

 Routine SETGRP: Setting up the symmetry group for a 
 base centered orthorhombic supercell.


 Subroutine GETGRP returns: Found  4 space group operations
 (whereof  4 operations were pure point group operations)
 out of a pool of  8 trial point group operations.


The (compounded) configuration has the point symmetry C_2h.


 Subroutine INISYM returns: Found  4 space group operations
 (whereof  4 operations are pure point group operations),
 and found     1 'primitive' translations

 
 
 KPOINTS: k-points along high symmetry lines      
  interpolating k-points between supplied coordinates
  k-points in reciprocal lattice
Space group operators:
 irot       det(A)        alpha          n_x          n_y          n_z        tau_x        tau_y        tau_z
    1     1.000000     0.000001     1.000000     0.000000     0.000000     0.000000     0.000000     0.000000
    2    -1.000000     0.000001     1.000000     0.000000     0.000000     0.000000     0.000000     0.000000
    3     1.000000   179.999999    -0.000000     1.000000     0.000000     0.000000     0.000000     0.000000
    4    -1.000000   179.999999    -0.000000     1.000000     0.000000     0.000000     0.000000     0.000000


--------------------------------------------------------------------------------------------------------




 Dimension of arrays:
   k-points           NKPTS =    200   k-points in BZ     NKDIM =    200   number of bands    NBANDS=     42
   number of dos      NEDOS =    301   number of ions     NIONS =      6
   non local maximal  LDIM  =      5   non local SUM 2l+1 LMDIM =     13
   total plane-waves  NPLWV = 408240
   max r-space proj   IRMAX =      1   max aug-charges    IRDMAX=  22208
   dimension x,y,z NGX =    54 NGY =   54 NGZ =  140
   dimension x,y,z NGXF=    80 NGYF=   80 NGZF=  192
   support grid    NGXF=    80 NGYF=   80 NGZF=  192
   ions per type =               2   4
   NGX,Y,Z   is equivalent  to a cutoff of  11.00, 11.00, 11.72 a.u.
   NGXF,Y,Z  is equivalent  to a cutoff of  16.29, 16.29, 16.07 a.u.

 SYSTEM =  AsS2                                    
 POSCAR =  Bi S                                    

 Startparameter for this run:
   NWRITE =      2    write-flag & timer
   PREC   = h         normal or accurate (medium, high low for compatibility)
   ISTART =      0    job   : 0-new  1-cont  2-samecut
   ICHARG =     11    charge: 1-file 2-atom 10-const
   ISPIN  =      1    spin polarized calculation?
   LNONCOLLINEAR =      T non collinear calculations
   LSORBIT =      T    spin-orbit coupling
   INIWAV =      1    electr: 0-lowe 1-rand  2-diag
   LASPH  =      F    aspherical Exc in radial PAW
   METAGGA=      F    non-selfconsistent MetaGGA calc.

 Electronic Relaxation 1
   ENCUT  =  400.0 eV  29.40 Ry    5.42 a.u.  13.31 13.31 32.39*2*pi/ulx,y,z
   ENINI  =  400.0     initial cutoff
   ENAUG  =  446.8 eV  augmentation charge cutoff
   NELM   =     60;   NELMIN=  2; NELMDL=  0     # of ELM steps 
   EDIFF  = 0.1E-05   stopping-criterion for ELM
   LREAL  =      F    real-space projection
   NLSPLINE    = F    spline interpolate recip. space projectors
   LCOMPAT=      F    compatible to vasp.4.4
   GGA_COMPAT  = T    GGA compatible to vasp.4.4-vasp.4.6
   LMAXPAW     = -100 max onsite density
   LMAXMIX     =    2 max onsite mixed and CHGCAR
   VOSKOWN=      0    Vosko Wilk Nusair interpolation
   ROPT   =    0.00000   0.00000
 Ionic relaxation
   EDIFFG = -.1E-05   stopping-criterion for IOM
   NSW    =      0    number of steps for IOM
   NBLOCK =      1;   KBLOCK =      1    inner block; outer block 
   IBRION =     -1    ionic relax: 0-MD 1-quasi-New 2-CG
   NFREE  =      0    steps in history (QN), initial steepest desc. (CG)
   ISIF   =      2    stress and relaxation
   IWAVPR =     10    prediction:  0-non 1-charg 2-wave 3-comb
   ISYM   =      2    0-nonsym 1-usesym 2-fastsym
   LCORR  =      T    Harris-Foulkes like correction to forces

   POTIM  = 0.5000    time-step for ionic-motion
   TEIN   =    0.0    initial temperature
   TEBEG  =    0.0;   TEEND  =   0.0 temperature during run
   SMASS  =  -3.00    Nose mass-parameter (am)
   estimated Nose-frequenzy (Omega)   =  0.10E-29 period in steps =****** mass=  -0.152E-26a.u.
   SCALEE = 1.0000    scale energy and forces
   NPACO  =    256;   APACO  = 16.0  distance and # of slots for P.C.
   PSTRESS=    0.0 pullay stress

  Mass of Ions in am
   POMASS = 208.98 78.96
  Ionic Valenz
   ZVAL   =   5.00  6.00
  Atomic Wigner-Seitz radii
   RWIGS  =  -1.00 -1.00
  virtual crystal weights 
   VCA    =   1.00  1.00
   NELECT =      34.0000    total number of electrons
   NUPDOWN=      -1.0000    fix difference up-down

 DOS related values:
   EMIN   =  10.00;   EMAX   =-10.00  energy-range for DOS
   EFERMI =   0.00
   ISMEAR =     1;   SIGMA  =   0.01  broadening in eV -4-tet -1-fermi 0-gaus

 Electronic relaxation 2 (details)
   IALGO  =     38    algorithm
   LDIAG  =      T    sub-space diagonalisation (order eigenvalues)
   LSUBROT=      F    optimize rotation matrix (better conditioning)
   TURBO    =      0    0=normal 1=particle mesh
   IRESTART =      0    0=no restart 2=restart with 2 vectors
   NREBOOT  =      0    no. of reboots
   NMIN     =      0    reboot dimension
   EREF     =   0.00    reference energy to select bands
   IMIX   =      4    mixing-type and parameters
     AMIX     =   0.40;   BMIX     =  1.00
     AMIX_MAG =   1.60;   BMIX_MAG =  1.00
     AMIN     =   0.10
     WC   =   100.;   INIMIX=   1;  MIXPRE=   1;  MAXMIX= -45

 Intra band minimization:
   WEIMIN = 0.0000     energy-eigenvalue tresh-hold
   EBREAK =  0.60E-09  absolut break condition
   DEPER  =   0.30     relativ break condition  

   TIME   =   0.40     timestep for ELM

  volume/ion in A,a.u.               =     110.79       747.64
  Fermi-wavevector in a.u.,A,eV,Ry     =   0.607694  1.148376  5.024529  0.369292
  Thomas-Fermi vector in A             =   1.662251
 
 Write flags
   LWAVE        =      F    write WAVECAR
   LDOWNSAMPLE  =      F    k-point downsampling of WAVECAR
   LCHARG       =      F    write CHGCAR
   LVTOT        =      F    write LOCPOT, total local potential
   LVHAR        =      F    write LOCPOT, Hartree potential only
   LELF         =      F    write electronic localiz. function (ELF)
   LORBIT       =     11    0 simple, 1 ext, 2 COOP (PROOUT), +10 PAW based schemes


 Dipole corrections
   LMONO  =      F    monopole corrections only (constant potential shift)
   LDIPOL =      F    correct potential (dipole corrections)
   IDIPOL =      0    1-x, 2-y, 3-z, 4-all directions 
   EPSILON=  1.0000000 bulk dielectric constant

 Exchange correlation treatment:
   GGA     =    --    GGA type
   LEXCH   =     8    internal setting for exchange type
   VOSKOWN=      0    Vosko Wilk Nusair interpolation
   LHFCALC =     F    Hartree Fock is set to
   LHFONE  =     F    Hartree Fock one center treatment
   AEXX    =    0.0000 exact exchange contribution

 Linear response parameters
   LEPSILON=     F    determine dielectric tensor
   LRPA    =     F    only Hartree local field effects (RPA)
   LNABLA  =     F    use nabla operator in PAW spheres
   LVEL    =     F    velocity operator in full k-point grid
   LINTERFAST=   F  fast interpolation
   KINTER  =     0    interpolate to denser k-point grid
   CSHIFT  =0.1000    complex shift for real part using Kramers Kronig
   OMEGAMAX=  -1.0    maximum frequency
   DEG_THRESHOLD= 0.2000000E-02 threshold for treating states as degnerate
   RTIME   =   -0.100 relaxation time in fs
  (WPLASMAI=    0.000 imaginary part of plasma frequency in eV, 0.658/RTIME)
   DFIELD  = 0.0000000 0.0000000 0.0000000 field for delta impulse in time
 
 Orbital magnetization related:
   ORBITALMAG=     F  switch on orbital magnetization
   LCHIMAG   =     F  perturbation theory with respect to B field
   DQ        =  0.001000  dq finite difference perturbation B field
   LLRAUG    =     F  two centre corrections for induced B field



--------------------------------------------------------------------------------------------------------


 Static calculation
 charge density and potential remain constant during run
 non collinear spin polarized calculation
 Variant of blocked Davidson
 Davidson routine will perform the subspace rotation
 perform sub-space diagonalisation
    after iterative eigenvector-optimisation
 no mixing
 using additional bands           25
 reciprocal scheme for non local part
 use partial core corrections
 calculate Harris-corrections to forces 
   (improved forces if not selfconsistent)
 use gradient corrections 
 WARNING: stress and forces are not correct
  (second derivative of E(xc) not defined)
 use of overlap-Matrix (Vanderbilt PP)
 Methfessel and Paxton  Order N= 1 SIGMA  =   0.01


--------------------------------------------------------------------------------------------------------


  energy-cutoff  :      400.00
  volume of cell :      664.73
      direct lattice vectors                 reciprocal lattice vectors
     7.883217348 -2.123029049  0.000000000     0.063425880 -0.235512557  0.000000000
     7.883217348  2.123029049  0.000000000     0.063425880  0.235512557  0.000000000
     0.000000000  0.000000000 19.859042146     0.000000000  0.000000000  0.050354896

  length of vectors
     8.164090157  8.164090157 19.859042146     0.243903684  0.243903684  0.050354896


 
 k-points in units of 2pi/SCALE and weight: k-points along high symmetry lines      
   0.00000000  0.00000000  0.00000000       0.005
   0.00064720 -0.00240319  0.00000000       0.005
   0.00129441 -0.00480638  0.00000000       0.005
   0.00194161 -0.00720957  0.00000000       0.005
   0.00258881 -0.00961276  0.00000000       0.005
   0.00323601 -0.01201595  0.00000000       0.005
   0.00388322 -0.01441914  0.00000000       0.005
   0.00453042 -0.01682233  0.00000000       0.005
   0.00517762 -0.01922551  0.00000000       0.005
   0.00582483 -0.02162870  0.00000000       0.005
   0.00647203 -0.02403189  0.00000000       0.005
   0.00711923 -0.02643508  0.00000000       0.005
   0.00776643 -0.02883827  0.00000000       0.005
   0.00841364 -0.03124146  0.00000000       0.005
   0.00906084 -0.03364465  0.00000000       0.005
   0.00970804 -0.03604784  0.00000000       0.005
   0.01035525 -0.03845103  0.00000000       0.005
   0.01100245 -0.04085422  0.00000000       0.005
   0.01164965 -0.04325741  0.00000000       0.005
   0.01229685 -0.04566060  0.00000000       0.005
   0.01294406 -0.04806379  0.00000000       0.005
   0.01359126 -0.05046698  0.00000000       0.005
   0.01423846 -0.05287017  0.00000000       0.005
   0.01488567 -0.05527336  0.00000000       0.005
   0.01553287 -0.05767654  0.00000000       0.005
   0.01618007 -0.06007973  0.00000000       0.005
   0.01682727 -0.06248292  0.00000000       0.005
   0.01747448 -0.06488611  0.00000000       0.005
   0.01812168 -0.06728930  0.00000000       0.005
   0.01876888 -0.06969249  0.00000000       0.005
   0.01941609 -0.07209568  0.00000000       0.005
   0.02006329 -0.07449887  0.00000000       0.005
   0.02071049 -0.07690206  0.00000000       0.005
   0.02135769 -0.07930525  0.00000000       0.005
   0.02200490 -0.08170844  0.00000000       0.005
   0.02265210 -0.08411163  0.00000000       0.005
   0.02329930 -0.08651482  0.00000000       0.005
   0.02394651 -0.08891801  0.00000000       0.005
   0.02459371 -0.09132120  0.00000000       0.005
   0.02524091 -0.09372438  0.00000000       0.005
   0.02588811 -0.09612757  0.00000000       0.005
   0.02653532 -0.09853076  0.00000000       0.005
   0.02718252 -0.10093395  0.00000000       0.005
   0.02782972 -0.10333714  0.00000000       0.005
   0.02847693 -0.10574033  0.00000000       0.005
   0.02912413 -0.10814352  0.00000000       0.005
   0.02977133 -0.11054671  0.00000000       0.005
   0.03041853 -0.11294990  0.00000000       0.005
   0.03106574 -0.11535309  0.00000000       0.005
   0.03171294 -0.11775628  0.00000000       0.005
   0.03171294 -0.11775628  0.00000000       0.005
   0.03236014 -0.11535309  0.00000000       0.005
   0.03300735 -0.11294990  0.00000000       0.005
   0.03365455 -0.11054671  0.00000000       0.005
   0.03430175 -0.10814352  0.00000000       0.005
   0.03494895 -0.10574033  0.00000000       0.005
   0.03559616 -0.10333714  0.00000000       0.005
   0.03624336 -0.10093395  0.00000000       0.005
   0.03689056 -0.09853076  0.00000000       0.005
   0.03753777 -0.09612757  0.00000000       0.005
   0.03818497 -0.09372438  0.00000000       0.005
   0.03883217 -0.09132120  0.00000000       0.005
   0.03947937 -0.08891801  0.00000000       0.005
   0.04012658 -0.08651482  0.00000000       0.005
   0.04077378 -0.08411163  0.00000000       0.005
   0.04142098 -0.08170844  0.00000000       0.005
   0.04206819 -0.07930525  0.00000000       0.005
   0.04271539 -0.07690206  0.00000000       0.005
   0.04336259 -0.07449887  0.00000000       0.005
   0.04400979 -0.07209568  0.00000000       0.005
   0.04465700 -0.06969249  0.00000000       0.005
   0.04530420 -0.06728930  0.00000000       0.005
   0.04595140 -0.06488611  0.00000000       0.005
   0.04659861 -0.06248292  0.00000000       0.005
   0.04724581 -0.06007973  0.00000000       0.005
   0.04789301 -0.05767654  0.00000000       0.005
   0.04854021 -0.05527336  0.00000000       0.005
   0.04918742 -0.05287017  0.00000000       0.005
   0.04983462 -0.05046698  0.00000000       0.005
   0.05048182 -0.04806379  0.00000000       0.005
   0.05112903 -0.04566060  0.00000000       0.005
   0.05177623 -0.04325741  0.00000000       0.005
   0.05242343 -0.04085422  0.00000000       0.005
   0.05307063 -0.03845103  0.00000000       0.005
   0.05371784 -0.03604784  0.00000000       0.005
   0.05436504 -0.03364465  0.00000000       0.005
   0.05501224 -0.03124146  0.00000000       0.005
   0.05565945 -0.02883827  0.00000000       0.005
   0.05630665 -0.02643508  0.00000000       0.005
   0.05695385 -0.02403189  0.00000000       0.005
   0.05760105 -0.02162870  0.00000000       0.005
   0.05824826 -0.01922551  0.00000000       0.005
   0.05889546 -0.01682233  0.00000000       0.005
   0.05954266 -0.01441914  0.00000000       0.005
   0.06018987 -0.01201595  0.00000000       0.005
   0.06083707 -0.00961276  0.00000000       0.005
   0.06148427 -0.00720957  0.00000000       0.005
   0.06213147 -0.00480638  0.00000000       0.005
   0.06277868 -0.00240319  0.00000000       0.005
   0.06342588 -0.00000000  0.00000000       0.005
   0.06342588  0.00000000  0.00000000       0.005
   0.06277868  0.00240319  0.00000000       0.005
   0.06213147  0.00480638  0.00000000       0.005
   0.06148427  0.00720957  0.00000000       0.005
   0.06083707  0.00961276  0.00000000       0.005
   0.06018987  0.01201595  0.00000000       0.005
   0.05954266  0.01441914  0.00000000       0.005
   0.05889546  0.01682233  0.00000000       0.005
   0.05824826  0.01922551  0.00000000       0.005
   0.05760105  0.02162870  0.00000000       0.005
   0.05695385  0.02403189  0.00000000       0.005
   0.05630665  0.02643508  0.00000000       0.005
   0.05565945  0.02883827  0.00000000       0.005
   0.05501224  0.03124146  0.00000000       0.005
   0.05436504  0.03364465  0.00000000       0.005
   0.05371784  0.03604784  0.00000000       0.005
   0.05307063  0.03845103  0.00000000       0.005
   0.05242343  0.04085422  0.00000000       0.005
   0.05177623  0.04325741  0.00000000       0.005
   0.05112903  0.04566060  0.00000000       0.005
   0.05048182  0.04806379  0.00000000       0.005
   0.04983462  0.05046698  0.00000000       0.005
   0.04918742  0.05287017  0.00000000       0.005
   0.04854021  0.05527336  0.00000000       0.005
   0.04789301  0.05767654  0.00000000       0.005
   0.04724581  0.06007973  0.00000000       0.005
   0.04659861  0.06248292  0.00000000       0.005
   0.04595140  0.06488611  0.00000000       0.005
   0.04530420  0.06728930  0.00000000       0.005
   0.04465700  0.06969249  0.00000000       0.005
   0.04400979  0.07209568  0.00000000       0.005
   0.04336259  0.07449887  0.00000000       0.005
   0.04271539  0.07690206  0.00000000       0.005
   0.04206819  0.07930525  0.00000000       0.005
   0.04142098  0.08170844  0.00000000       0.005
   0.04077378  0.08411163  0.00000000       0.005
   0.04012658  0.08651482  0.00000000       0.005
   0.03947937  0.08891801  0.00000000       0.005
   0.03883217  0.09132120  0.00000000       0.005
   0.03818497  0.09372438  0.00000000       0.005
   0.03753777  0.09612757  0.00000000       0.005
   0.03689056  0.09853076  0.00000000       0.005
   0.03624336  0.10093395  0.00000000       0.005
   0.03559616  0.10333714  0.00000000       0.005
   0.03494895  0.10574033  0.00000000       0.005
   0.03430175  0.10814352  0.00000000       0.005
   0.03365455  0.11054671  0.00000000       0.005
   0.03300735  0.11294990  0.00000000       0.005
   0.03236014  0.11535309  0.00000000       0.005
   0.03171294  0.11775628  0.00000000       0.005
   0.03171294  0.11775628  0.00000000       0.005
   0.03106574  0.11535309  0.00000000       0.005
   0.03041853  0.11294990  0.00000000       0.005
   0.02977133  0.11054671  0.00000000       0.005
   0.02912413  0.10814352  0.00000000       0.005
   0.02847693  0.10574033  0.00000000       0.005
   0.02782972  0.10333714  0.00000000       0.005
   0.02718252  0.10093395  0.00000000       0.005
   0.02653532  0.09853076  0.00000000       0.005
   0.02588811  0.09612757  0.00000000       0.005
   0.02524091  0.09372438  0.00000000       0.005
   0.02459371  0.09132120  0.00000000       0.005
   0.02394651  0.08891801  0.00000000       0.005
   0.02329930  0.08651482  0.00000000       0.005
   0.02265210  0.08411163  0.00000000       0.005
   0.02200490  0.08170844  0.00000000       0.005
   0.02135769  0.07930525  0.00000000       0.005
   0.02071049  0.07690206  0.00000000       0.005
   0.02006329  0.07449887  0.00000000       0.005
   0.01941609  0.07209568  0.00000000       0.005
   0.01876888  0.06969249  0.00000000       0.005
   0.01812168  0.06728930  0.00000000       0.005
   0.01747448  0.06488611  0.00000000       0.005
   0.01682727  0.06248292  0.00000000       0.005
   0.01618007  0.06007973  0.00000000       0.005
   0.01553287  0.05767654  0.00000000       0.005
   0.01488567  0.05527336  0.00000000       0.005
   0.01423846  0.05287017  0.00000000       0.005
   0.01359126  0.05046698  0.00000000       0.005
   0.01294406  0.04806379  0.00000000       0.005
   0.01229685  0.04566060  0.00000000       0.005
   0.01164965  0.04325741  0.00000000       0.005
   0.01100245  0.04085422  0.00000000       0.005
   0.01035525  0.03845103  0.00000000       0.005
   0.00970804  0.03604784  0.00000000       0.005
   0.00906084  0.03364465  0.00000000       0.005
   0.00841364  0.03124146  0.00000000       0.005
   0.00776643  0.02883827  0.00000000       0.005
   0.00711923  0.02643508  0.00000000       0.005
   0.00647203  0.02403189  0.00000000       0.005
   0.00582483  0.02162870  0.00000000       0.005
   0.00517762  0.01922551  0.00000000       0.005
   0.00453042  0.01682233  0.00000000       0.005
   0.00388322  0.01441914  0.00000000       0.005
   0.00323601  0.01201595  0.00000000       0.005
   0.00258881  0.00961276  0.00000000       0.005
   0.00194161  0.00720957  0.00000000       0.005
   0.00129441  0.00480638  0.00000000       0.005
   0.00064720  0.00240319  0.00000000       0.005
   0.00000000  0.00000000  0.00000000       0.005
 
 k-points in reciprocal lattice and weights: k-points along high symmetry lines      
   0.00000000  0.00000000  0.00000000       0.005
   0.01020408  0.00000000  0.00000000       0.005
   0.02040816  0.00000000  0.00000000       0.005
   0.03061224  0.00000000  0.00000000       0.005
   0.04081633  0.00000000  0.00000000       0.005
   0.05102041  0.00000000  0.00000000       0.005
   0.06122449  0.00000000  0.00000000       0.005
   0.07142857  0.00000000  0.00000000       0.005
   0.08163265  0.00000000  0.00000000       0.005
   0.09183673  0.00000000  0.00000000       0.005
   0.10204082  0.00000000  0.00000000       0.005
   0.11224490  0.00000000  0.00000000       0.005
   0.12244898  0.00000000  0.00000000       0.005
   0.13265306  0.00000000  0.00000000       0.005
   0.14285714  0.00000000  0.00000000       0.005
   0.15306122  0.00000000  0.00000000       0.005
   0.16326531  0.00000000  0.00000000       0.005
   0.17346939  0.00000000  0.00000000       0.005
   0.18367347  0.00000000  0.00000000       0.005
   0.19387755  0.00000000  0.00000000       0.005
   0.20408163  0.00000000  0.00000000       0.005
   0.21428571  0.00000000  0.00000000       0.005
   0.22448980  0.00000000  0.00000000       0.005
   0.23469388  0.00000000  0.00000000       0.005
   0.24489796  0.00000000  0.00000000       0.005
   0.25510204  0.00000000  0.00000000       0.005
   0.26530612  0.00000000  0.00000000       0.005
   0.27551020  0.00000000  0.00000000       0.005
   0.28571429  0.00000000  0.00000000       0.005
   0.29591837  0.00000000  0.00000000       0.005
   0.30612245  0.00000000  0.00000000       0.005
   0.31632653  0.00000000  0.00000000       0.005
   0.32653061  0.00000000  0.00000000       0.005
   0.33673469  0.00000000  0.00000000       0.005
   0.34693878  0.00000000  0.00000000       0.005
   0.35714286  0.00000000  0.00000000       0.005
   0.36734694  0.00000000  0.00000000       0.005
   0.37755102  0.00000000  0.00000000       0.005
   0.38775510  0.00000000  0.00000000       0.005
   0.39795918  0.00000000  0.00000000       0.005
   0.40816327  0.00000000  0.00000000       0.005
   0.41836735  0.00000000  0.00000000       0.005
   0.42857143  0.00000000  0.00000000       0.005
   0.43877551  0.00000000  0.00000000       0.005
   0.44897959  0.00000000  0.00000000       0.005
   0.45918367  0.00000000  0.00000000       0.005
   0.46938776  0.00000000  0.00000000       0.005
   0.47959184  0.00000000  0.00000000       0.005
   0.48979592  0.00000000  0.00000000       0.005
   0.50000000  0.00000000  0.00000000       0.005
   0.50000000  0.00000000  0.00000000       0.005
   0.50000000  0.01020408  0.00000000       0.005
   0.50000000  0.02040816  0.00000000       0.005
   0.50000000  0.03061224  0.00000000       0.005
   0.50000000  0.04081633  0.00000000       0.005
   0.50000000  0.05102041  0.00000000       0.005
   0.50000000  0.06122449  0.00000000       0.005
   0.50000000  0.07142857  0.00000000       0.005
   0.50000000  0.08163265  0.00000000       0.005
   0.50000000  0.09183673  0.00000000       0.005
   0.50000000  0.10204082  0.00000000       0.005
   0.50000000  0.11224490  0.00000000       0.005
   0.50000000  0.12244898  0.00000000       0.005
   0.50000000  0.13265306  0.00000000       0.005
   0.50000000  0.14285714  0.00000000       0.005
   0.50000000  0.15306122  0.00000000       0.005
   0.50000000  0.16326531  0.00000000       0.005
   0.50000000  0.17346939  0.00000000       0.005
   0.50000000  0.18367347  0.00000000       0.005
   0.50000000  0.19387755  0.00000000       0.005
   0.50000000  0.20408163  0.00000000       0.005
   0.50000000  0.21428571  0.00000000       0.005
   0.50000000  0.22448980  0.00000000       0.005
   0.50000000  0.23469388  0.00000000       0.005
   0.50000000  0.24489796  0.00000000       0.005
   0.50000000  0.25510204  0.00000000       0.005
   0.50000000  0.26530612  0.00000000       0.005
   0.50000000  0.27551020  0.00000000       0.005
   0.50000000  0.28571429  0.00000000       0.005
   0.50000000  0.29591837  0.00000000       0.005
   0.50000000  0.30612245  0.00000000       0.005
   0.50000000  0.31632653  0.00000000       0.005
   0.50000000  0.32653061  0.00000000       0.005
   0.50000000  0.33673469  0.00000000       0.005
   0.50000000  0.34693878  0.00000000       0.005
   0.50000000  0.35714286  0.00000000       0.005
   0.50000000  0.36734694  0.00000000       0.005
   0.50000000  0.37755102  0.00000000       0.005
   0.50000000  0.38775510  0.00000000       0.005
   0.50000000  0.39795918  0.00000000       0.005
   0.50000000  0.40816327  0.00000000       0.005
   0.50000000  0.41836735  0.00000000       0.005
   0.50000000  0.42857143  0.00000000       0.005
   0.50000000  0.43877551  0.00000000       0.005
   0.50000000  0.44897959  0.00000000       0.005
   0.50000000  0.45918367  0.00000000       0.005
   0.50000000  0.46938776  0.00000000       0.005
   0.50000000  0.47959184  0.00000000       0.005
   0.50000000  0.48979592  0.00000000       0.005
   0.50000000  0.50000000  0.00000000       0.005
   0.50000000  0.50000000  0.00000000       0.005
   0.48979592  0.50000000  0.00000000       0.005
   0.47959184  0.50000000  0.00000000       0.005
   0.46938776  0.50000000  0.00000000       0.005
   0.45918367  0.50000000  0.00000000       0.005
   0.44897959  0.50000000  0.00000000       0.005
   0.43877551  0.50000000  0.00000000       0.005
   0.42857143  0.50000000  0.00000000       0.005
   0.41836735  0.50000000  0.00000000       0.005
   0.40816327  0.50000000  0.00000000       0.005
   0.39795918  0.50000000  0.00000000       0.005
   0.38775510  0.50000000  0.00000000       0.005
   0.37755102  0.50000000  0.00000000       0.005
   0.36734694  0.50000000  0.00000000       0.005
   0.35714286  0.50000000  0.00000000       0.005
   0.34693878  0.50000000  0.00000000       0.005
   0.33673469  0.50000000  0.00000000       0.005
   0.32653061  0.50000000  0.00000000       0.005
   0.31632653  0.50000000  0.00000000       0.005
   0.30612245  0.50000000  0.00000000       0.005
   0.29591837  0.50000000  0.00000000       0.005
   0.28571429  0.50000000  0.00000000       0.005
   0.27551020  0.50000000  0.00000000       0.005
   0.26530612  0.50000000  0.00000000       0.005
   0.25510204  0.50000000  0.00000000       0.005
   0.24489796  0.50000000  0.00000000       0.005
   0.23469388  0.50000000  0.00000000       0.005
   0.22448980  0.50000000  0.00000000       0.005
   0.21428571  0.50000000  0.00000000       0.005
   0.20408163  0.50000000  0.00000000       0.005
   0.19387755  0.50000000  0.00000000       0.005
   0.18367347  0.50000000  0.00000000       0.005
   0.17346939  0.50000000  0.00000000       0.005
   0.16326531  0.50000000  0.00000000       0.005
   0.15306122  0.50000000  0.00000000       0.005
   0.14285714  0.50000000  0.00000000       0.005
   0.13265306  0.50000000  0.00000000       0.005
   0.12244898  0.50000000  0.00000000       0.005
   0.11224490  0.50000000  0.00000000       0.005
   0.10204082  0.50000000  0.00000000       0.005
   0.09183673  0.50000000  0.00000000       0.005
   0.08163265  0.50000000  0.00000000       0.005
   0.07142857  0.50000000  0.00000000       0.005
   0.06122449  0.50000000  0.00000000       0.005
   0.05102041  0.50000000  0.00000000       0.005
   0.04081633  0.50000000  0.00000000       0.005
   0.03061224  0.50000000  0.00000000       0.005
   0.02040816  0.50000000  0.00000000       0.005
   0.01020408  0.50000000  0.00000000       0.005
   0.00000000  0.50000000  0.00000000       0.005
   0.00000000  0.50000000  0.00000000       0.005
   0.00000000  0.48979592  0.00000000       0.005
   0.00000000  0.47959184  0.00000000       0.005
   0.00000000  0.46938776  0.00000000       0.005
   0.00000000  0.45918367  0.00000000       0.005
   0.00000000  0.44897959  0.00000000       0.005
   0.00000000  0.43877551  0.00000000       0.005
   0.00000000  0.42857143  0.00000000       0.005
   0.00000000  0.41836735  0.00000000       0.005
   0.00000000  0.40816327  0.00000000       0.005
   0.00000000  0.39795918  0.00000000       0.005
   0.00000000  0.38775510  0.00000000       0.005
   0.00000000  0.37755102  0.00000000       0.005
   0.00000000  0.36734694  0.00000000       0.005
   0.00000000  0.35714286  0.00000000       0.005
   0.00000000  0.34693878  0.00000000       0.005
   0.00000000  0.33673469  0.00000000       0.005
   0.00000000  0.32653061  0.00000000       0.005
   0.00000000  0.31632653  0.00000000       0.005
   0.00000000  0.30612245  0.00000000       0.005
   0.00000000  0.29591837  0.00000000       0.005
   0.00000000  0.28571429  0.00000000       0.005
   0.00000000  0.27551020  0.00000000       0.005
   0.00000000  0.26530612  0.00000000       0.005
   0.00000000  0.25510204  0.00000000       0.005
   0.00000000  0.24489796  0.00000000       0.005
   0.00000000  0.23469388  0.00000000       0.005
   0.00000000  0.22448980  0.00000000       0.005
   0.00000000  0.21428571  0.00000000       0.005
   0.00000000  0.20408163  0.00000000       0.005
   0.00000000  0.19387755  0.00000000       0.005
   0.00000000  0.18367347  0.00000000       0.005
   0.00000000  0.17346939  0.00000000       0.005
   0.00000000  0.16326531  0.00000000       0.005
   0.00000000  0.15306122  0.00000000       0.005
   0.00000000  0.14285714  0.00000000       0.005
   0.00000000  0.13265306  0.00000000       0.005
   0.00000000  0.12244898  0.00000000       0.005
   0.00000000  0.11224490  0.00000000       0.005
   0.00000000  0.10204082  0.00000000       0.005
   0.00000000  0.09183673  0.00000000       0.005
   0.00000000  0.08163265  0.00000000       0.005
   0.00000000  0.07142857  0.00000000       0.005
   0.00000000  0.06122449  0.00000000       0.005
   0.00000000  0.05102041  0.00000000       0.005
   0.00000000  0.04081633  0.00000000       0.005
   0.00000000  0.03061224  0.00000000       0.005
   0.00000000  0.02040816  0.00000000       0.005
   0.00000000  0.01020408  0.00000000       0.005
   0.00000000  0.00000000  0.00000000       0.005
 
 position of ions in fractional coordinates (direct lattice) 
   0.64487378  0.64487378  0.01986327
   0.35512622  0.35512622  0.98013673
   0.75340987  0.75340987  0.91430101
   0.04324503  0.04324503  0.95015892
   0.95675497  0.95675497  0.04984108
   0.24659013  0.24659013  0.08569899
 
 position of ions in cartesian coordinates  (Angst):
  10.16736039  0.00000000  0.39446557
   5.59907431 -0.00000000 19.46457657
  11.87858749 -0.00000000 18.15714230
   0.68181999  0.00000000 18.86924599
  15.08461471 -0.00000000  0.98979616
   3.88784721  0.00000000  1.70189985
 
 Euler angles ALPHA=     0.0000000  BETA=     0.0000000

 transformation matrix from SAXIS to cartesian coordinates
 ---------------------------------------------------------
     1.0000000 m_x     0.0000000 m_y     0.0000000 m_z
     0.0000000 m_x     1.0000000 m_y     0.0000000 m_z
     0.0000000 m_x     0.0000000 m_y     1.0000000 m_z

 transformation matrix from cartesian coordinates to SAXIS
 ---------------------------------------------------------
     1.0000000 m_x     0.0000000 m_y     0.0000000 m_z
     0.0000000 m_x     1.0000000 m_y     0.0000000 m_z
     0.0000000 m_x     0.0000000 m_y     1.0000000 m_z




--------------------------------------------------------------------------------------------------------


 k-point  1 :   0.0000 0.0000 0.0000  plane waves:   24142
 k-point  2 :   0.0102 0.0000 0.0000  plane waves:   24134
 k-point  3 :   0.0204 0.0000 0.0000  plane waves:   24134
 k-point  4 :   0.0306 0.0000 0.0000  plane waves:   24122
 k-point  5 :   0.0408 0.0000 0.0000  plane waves:   24118
 k-point  6 :   0.0510 0.0000 0.0000  plane waves:   24090
 k-point  7 :   0.0612 0.0000 0.0000  plane waves:   24094
 k-point  8 :   0.0714 0.0000 0.0000  plane waves:   24092
 k-point  9 :   0.0816 0.0000 0.0000  plane waves:   24106
 k-point 10 :   0.0918 0.0000 0.0000  plane waves:   24112
 k-point 11 :   0.1020 0.0000 0.0000  plane waves:   24116
 k-point 12 :   0.1122 0.0000 0.0000  plane waves:   24114
 k-point 13 :   0.1224 0.0000 0.0000  plane waves:   24100
 k-point 14 :   0.1327 0.0000 0.0000  plane waves:   24102
 k-point 15 :   0.1429 0.0000 0.0000  plane waves:   24106
 k-point 16 :   0.1531 0.0000 0.0000  plane waves:   24100
 k-point 17 :   0.1633 0.0000 0.0000  plane waves:   24086
 k-point 18 :   0.1735 0.0000 0.0000  plane waves:   24084
 k-point 19 :   0.1837 0.0000 0.0000  plane waves:   24100
 k-point 20 :   0.1939 0.0000 0.0000  plane waves:   24100
 k-point 21 :   0.2041 0.0000 0.0000  plane waves:   24128
 k-point 22 :   0.2143 0.0000 0.0000  plane waves:   24124
 k-point 23 :   0.2245 0.0000 0.0000  plane waves:   24142
 k-point 24 :   0.2347 0.0000 0.0000  plane waves:   24152
 k-point 25 :   0.2449 0.0000 0.0000  plane waves:   24160
 k-point 26 :   0.2551 0.0000 0.0000  plane waves:   24166
 k-point 27 :   0.2653 0.0000 0.0000  plane waves:   24150
 k-point 28 :   0.2755 0.0000 0.0000  plane waves:   24140
 k-point 29 :   0.2857 0.0000 0.0000  plane waves:   24150
 k-point 30 :   0.2959 0.0000 0.0000  plane waves:   24160
 k-point 31 :   0.3061 0.0000 0.0000  plane waves:   24148
 k-point 32 :   0.3163 0.0000 0.0000  plane waves:   24184
 k-point 33 :   0.3265 0.0000 0.0000  plane waves:   24160
 k-point 34 :   0.3367 0.0000 0.0000  plane waves:   24152
 k-point 35 :   0.3469 0.0000 0.0000  plane waves:   24174
 k-point 36 :   0.3571 0.0000 0.0000  plane waves:   24178
 k-point 37 :   0.3673 0.0000 0.0000  plane waves:   24200
 k-point 38 :   0.3776 0.0000 0.0000  plane waves:   24200
 k-point 39 :   0.3878 0.0000 0.0000  plane waves:   24216
 k-point 40 :   0.3980 0.0000 0.0000  plane waves:   24224
 k-point 41 :   0.4082 0.0000 0.0000  plane waves:   24220
 k-point 42 :   0.4184 0.0000 0.0000  plane waves:   24208
 k-point 43 :   0.4286 0.0000 0.0000  plane waves:   24186
 k-point 44 :   0.4388 0.0000 0.0000  plane waves:   24174
 k-point 45 :   0.4490 0.0000 0.0000  plane waves:   24190
 k-point 46 :   0.4592 0.0000 0.0000  plane waves:   24190
 k-point 47 :   0.4694 0.0000 0.0000  plane waves:   24216
 k-point 48 :   0.4796 0.0000 0.0000  plane waves:   24200
 k-point 49 :   0.4898 0.0000 0.0000  plane waves:   24212
 k-point 50 :   0.5000 0.0000 0.0000  plane waves:   24192
 k-point 51 :   0.5000 0.0000 0.0000  plane waves:   24192
 k-point 52 :   0.5000 0.0102 0.0000  plane waves:   24198
 k-point 53 :   0.5000 0.0204 0.0000  plane waves:   24230
 k-point 54 :   0.5000 0.0306 0.0000  plane waves:   24234
 k-point 55 :   0.5000 0.0408 0.0000  plane waves:   24210
 k-point 56 :   0.5000 0.0510 0.0000  plane waves:   24210
 k-point 57 :   0.5000 0.0612 0.0000  plane waves:   24212
 k-point 58 :   0.5000 0.0714 0.0000  plane waves:   24212
 k-point 59 :   0.5000 0.0816 0.0000  plane waves:   24200
 k-point 60 :   0.5000 0.0918 0.0000  plane waves:   24216
 k-point 61 :   0.5000 0.1020 0.0000  plane waves:   24230
 k-point 62 :   0.5000 0.1122 0.0000  plane waves:   24228
 k-point 63 :   0.5000 0.1224 0.0000  plane waves:   24210
 k-point 64 :   0.5000 0.1327 0.0000  plane waves:   24198
 k-point 65 :   0.5000 0.1429 0.0000  plane waves:   24214
 k-point 66 :   0.5000 0.1531 0.0000  plane waves:   24190
 k-point 67 :   0.5000 0.1633 0.0000  plane waves:   24200
 k-point 68 :   0.5000 0.1735 0.0000  plane waves:   24208
 k-point 69 :   0.5000 0.1837 0.0000  plane waves:   24204
 k-point 70 :   0.5000 0.1939 0.0000  plane waves:   24184
 k-point 71 :   0.5000 0.2041 0.0000  plane waves:   24188
 k-point 72 :   0.5000 0.2143 0.0000  plane waves:   24180
 k-point 73 :   0.5000 0.2245 0.0000  plane waves:   24180
 k-point 74 :   0.5000 0.2347 0.0000  plane waves:   24192
 k-point 75 :   0.5000 0.2449 0.0000  plane waves:   24188
 k-point 76 :   0.5000 0.2551 0.0000  plane waves:   24178
 k-point 77 :   0.5000 0.2653 0.0000  plane waves:   24186
 k-point 78 :   0.5000 0.2755 0.0000  plane waves:   24184
 k-point 79 :   0.5000 0.2857 0.0000  plane waves:   24192
 k-point 80 :   0.5000 0.2959 0.0000  plane waves:   24184
 k-point 81 :   0.5000 0.3061 0.0000  plane waves:   24180
 k-point 82 :   0.5000 0.3163 0.0000  plane waves:   24178
 k-point 83 :   0.5000 0.3265 0.0000  plane waves:   24166
 k-point 84 :   0.5000 0.3367 0.0000  plane waves:   24160
 k-point 85 :   0.5000 0.3469 0.0000  plane waves:   24110
 k-point 86 :   0.5000 0.3571 0.0000  plane waves:   24098
 k-point 87 :   0.5000 0.3673 0.0000  plane waves:   24098
 k-point 88 :   0.5000 0.3776 0.0000  plane waves:   24082
 k-point 89 :   0.5000 0.3878 0.0000  plane waves:   24082
 k-point 90 :   0.5000 0.3980 0.0000  plane waves:   24070
 k-point 91 :   0.5000 0.4082 0.0000  plane waves:   24062
 k-point 92 :   0.5000 0.4184 0.0000  plane waves:   24058
 k-point 93 :   0.5000 0.4286 0.0000  plane waves:   24034
 k-point 94 :   0.5000 0.4388 0.0000  plane waves:   24042
 k-point 95 :   0.5000 0.4490 0.0000  plane waves:   24046
 k-point 96 :   0.5000 0.4592 0.0000  plane waves:   24032
 k-point 97 :   0.5000 0.4694 0.0000  plane waves:   24006
 k-point 98 :   0.5000 0.4796 0.0000  plane waves:   24000
 k-point 99 :   0.5000 0.4898 0.0000  plane waves:   23984
 k-point ** :   0.5000 0.5000 0.0000  plane waves:   23984
 k-point ** :   0.5000 0.5000 0.0000  plane waves:   23984
 k-point ** :   0.4898 0.5000 0.0000  plane waves:   23984
 k-point ** :   0.4796 0.5000 0.0000  plane waves:   24000
 k-point ** :   0.4694 0.5000 0.0000  plane waves:   24006
 k-point ** :   0.4592 0.5000 0.0000  plane waves:   24032
 k-point ** :   0.4490 0.5000 0.0000  plane waves:   24046
 k-point ** :   0.4388 0.5000 0.0000  plane waves:   24042
 k-point ** :   0.4286 0.5000 0.0000  plane waves:   24034
 k-point ** :   0.4184 0.5000 0.0000  plane waves:   24058
 k-point ** :   0.4082 0.5000 0.0000  plane waves:   24062
 k-point ** :   0.3980 0.5000 0.0000  plane waves:   24070
 k-point ** :   0.3878 0.5000 0.0000  plane waves:   24082
 k-point ** :   0.3776 0.5000 0.0000  plane waves:   24082
 k-point ** :   0.3673 0.5000 0.0000  plane waves:   24098
 k-point ** :   0.3571 0.5000 0.0000  plane waves:   24098
 k-point ** :   0.3469 0.5000 0.0000  plane waves:   24110
 k-point ** :   0.3367 0.5000 0.0000  plane waves:   24160
 k-point ** :   0.3265 0.5000 0.0000  plane waves:   24166
 k-point ** :   0.3163 0.5000 0.0000  plane waves:   24178
 k-point ** :   0.3061 0.5000 0.0000  plane waves:   24180
 k-point ** :   0.2959 0.5000 0.0000  plane waves:   24184
 k-point ** :   0.2857 0.5000 0.0000  plane waves:   24192
 k-point ** :   0.2755 0.5000 0.0000  plane waves:   24184
 k-point ** :   0.2653 0.5000 0.0000  plane waves:   24186
 k-point ** :   0.2551 0.5000 0.0000  plane waves:   24178
 k-point ** :   0.2449 0.5000 0.0000  plane waves:   24188
 k-point ** :   0.2347 0.5000 0.0000  plane waves:   24192
 k-point ** :   0.2245 0.5000 0.0000  plane waves:   24180
 k-point ** :   0.2143 0.5000 0.0000  plane waves:   24180
 k-point ** :   0.2041 0.5000 0.0000  plane waves:   24188
 k-point ** :   0.1939 0.5000 0.0000  plane waves:   24184
 k-point ** :   0.1837 0.5000 0.0000  plane waves:   24204
 k-point ** :   0.1735 0.5000 0.0000  plane waves:   24208
 k-point ** :   0.1633 0.5000 0.0000  plane waves:   24200
 k-point ** :   0.1531 0.5000 0.0000  plane waves:   24190
 k-point ** :   0.1429 0.5000 0.0000  plane waves:   24214
 k-point ** :   0.1327 0.5000 0.0000  plane waves:   24198
 k-point ** :   0.1224 0.5000 0.0000  plane waves:   24210
 k-point ** :   0.1122 0.5000 0.0000  plane waves:   24228
 k-point ** :   0.1020 0.5000 0.0000  plane waves:   24230
 k-point ** :   0.0918 0.5000 0.0000  plane waves:   24216
 k-point ** :   0.0816 0.5000 0.0000  plane waves:   24200
 k-point ** :   0.0714 0.5000 0.0000  plane waves:   24212
 k-point ** :   0.0612 0.5000 0.0000  plane waves:   24212
 k-point ** :   0.0510 0.5000 0.0000  plane waves:   24210
 k-point ** :   0.0408 0.5000 0.0000  plane waves:   24210
 k-point ** :   0.0306 0.5000 0.0000  plane waves:   24234
 k-point ** :   0.0204 0.5000 0.0000  plane waves:   24230
 k-point ** :   0.0102 0.5000 0.0000  plane waves:   24198
 k-point ** :   0.0000 0.5000 0.0000  plane waves:   24192
 k-point ** :   0.0000 0.5000 0.0000  plane waves:   24192
 k-point ** :   0.0000 0.4898 0.0000  plane waves:   24212
 k-point ** :   0.0000 0.4796 0.0000  plane waves:   24200
 k-point ** :   0.0000 0.4694 0.0000  plane waves:   24216
 k-point ** :   0.0000 0.4592 0.0000  plane waves:   24190
 k-point ** :   0.0000 0.4490 0.0000  plane waves:   24190
 k-point ** :   0.0000 0.4388 0.0000  plane waves:   24174
 k-point ** :   0.0000 0.4286 0.0000  plane waves:   24186
 k-point ** :   0.0000 0.4184 0.0000  plane waves:   24208
 k-point ** :   0.0000 0.4082 0.0000  plane waves:   24220
 k-point ** :   0.0000 0.3980 0.0000  plane waves:   24224
 k-point ** :   0.0000 0.3878 0.0000  plane waves:   24216
 k-point ** :   0.0000 0.3776 0.0000  plane waves:   24200
 k-point ** :   0.0000 0.3673 0.0000  plane waves:   24200
 k-point ** :   0.0000 0.3571 0.0000  plane waves:   24178
 k-point ** :   0.0000 0.3469 0.0000  plane waves:   24174
 k-point ** :   0.0000 0.3367 0.0000  plane waves:   24152
 k-point ** :   0.0000 0.3265 0.0000  plane waves:   24160
 k-point ** :   0.0000 0.3163 0.0000  plane waves:   24184
 k-point ** :   0.0000 0.3061 0.0000  plane waves:   24148
 k-point ** :   0.0000 0.2959 0.0000  plane waves:   24160
 k-point ** :   0.0000 0.2857 0.0000  plane waves:   24150
 k-point ** :   0.0000 0.2755 0.0000  plane waves:   24140
 k-point ** :   0.0000 0.2653 0.0000  plane waves:   24150
 k-point ** :   0.0000 0.2551 0.0000  plane waves:   24166
 k-point ** :   0.0000 0.2449 0.0000  plane waves:   24160
 k-point ** :   0.0000 0.2347 0.0000  plane waves:   24152
 k-point ** :   0.0000 0.2245 0.0000  plane waves:   24142
 k-point ** :   0.0000 0.2143 0.0000  plane waves:   24124
 k-point ** :   0.0000 0.2041 0.0000  plane waves:   24128
 k-point ** :   0.0000 0.1939 0.0000  plane waves:   24100
 k-point ** :   0.0000 0.1837 0.0000  plane waves:   24100
 k-point ** :   0.0000 0.1735 0.0000  plane waves:   24084
 k-point ** :   0.0000 0.1633 0.0000  plane waves:   24086
 k-point ** :   0.0000 0.1531 0.0000  plane waves:   24100
 k-point ** :   0.0000 0.1429 0.0000  plane waves:   24106
 k-point ** :   0.0000 0.1327 0.0000  plane waves:   24102
 k-point ** :   0.0000 0.1224 0.0000  plane waves:   24100
 k-point ** :   0.0000 0.1122 0.0000  plane waves:   24114
 k-point ** :   0.0000 0.1020 0.0000  plane waves:   24116
 k-point ** :   0.0000 0.0918 0.0000  plane waves:   24112
 k-point ** :   0.0000 0.0816 0.0000  plane waves:   24106
 k-point ** :   0.0000 0.0714 0.0000  plane waves:   24092
 k-point ** :   0.0000 0.0612 0.0000  plane waves:   24094
 k-point ** :   0.0000 0.0510 0.0000  plane waves:   24090
 k-point ** :   0.0000 0.0408 0.0000  plane waves:   24118
 k-point ** :   0.0000 0.0306 0.0000  plane waves:   24122
 k-point ** :   0.0000 0.0204 0.0000  plane waves:   24134
 k-point ** :   0.0000 0.0102 0.0000  plane waves:   24134
 k-point ** :   0.0000 0.0000 0.0000  plane waves:   24142

 maximum and minimum number of plane-waves per node :      1136     1060

 maximum number of plane-waves:     24234
 maximum index in each direction: 
   IXMAX=   13   IYMAX=   13   IZMAX=   32
   IXMIN=  -13   IYMIN=  -13   IZMIN=  -32


 parallel 3D FFT for wavefunctions:
    minimum data exchange during FFTs selected (reduces bandwidth)
 parallel 3D FFT for charge:
    minimum data exchange during FFTs selected (reduces bandwidth)


 total amount of memory used by VASP MPI-rank0   143444. kBytes
=======================================================================

   base      :      30000. kBytes
   nonl-proj :      23266. kBytes
   fftplans  :       2995. kBytes
   grid      :      10275. kBytes
   one-center:         32. kBytes
   wavefun   :      76876. kBytes
 
     INWAV:  cpu time    0.0000: real time    0.0000
 initial charge density was supplied:
 number of electron      34.0000008 magnetization       0.0000000     -0.0000000     -0.0000000
 keeping initial charge density in first step


--------------------------------------------------------------------------------------------------------


 Maximum index for augmentation-charges          540 (set IRDMAX)


--------------------------------------------------------------------------------------------------------


 First call to EWALD:  gamma=   0.203
 Maximum number of real-space cells 5x 5x 1
 Maximum number of reciprocal cells 3x 3x 6

    FEWALD:  cpu time    0.0018: real time    0.0018


--------------------------------------- Iteration      1(   1)  ---------------------------------------


    POTLOK:  cpu time    0.1122: real time    0.1211
    SETDIJ:  cpu time    0.0103: real time    0.0105
     EDDAV:  cpu time   31.3719: real time   31.8164
       DOS:  cpu time    0.0075: real time    0.0075
    --------------------------------------------
      LOOP:  cpu time   31.5020: real time   31.9556

 eigenvalue-minimisations  : 16920
 total energy-change (2. order) : 0.2390541E+03  (-0.8520434E+03)
 number of electron      34.0000008 magnetization       0.0000000     -0.0000000     -0.0000000
 augmentation part       34.0000008 magnetization       0.0000000     -0.0000000     -0.0000000

 Free energy of the ion-electron system (eV)
  ---------------------------------------------------
  alpha Z        PSCENC =        13.11178077
  Ewald energy   TEWEN  =      1955.04559991
  -Hartree energ DENC   =     -3100.12810046
  -exchange      EXHF   =         0.00000000
  -V(xc)+E(xc)   XCENC  =      -222.68321752
  PAW double counting   =       827.42259393     -538.85079914
  entropy T*S    EENTRO =         0.00004341
  eigenvalues    EBANDS =       -24.33960233
  atomic energy  EATOM  =      1329.47581950
  Solvation  Ediel_sol  =         0.00000000
  ---------------------------------------------------
  free energy    TOTEN  =       239.05411807 eV

  energy without entropy =      239.05407467  energy(sigma->0) =      239.05410360


--------------------------------------------------------------------------------------------------------




--------------------------------------- Iteration      1(   2)  ---------------------------------------


     EDDAV:  cpu time   43.0487: real time   43.4542
       DOS:  cpu time    0.0071: real time    0.0071
    --------------------------------------------
      LOOP:  cpu time   43.0558: real time   43.4613

 eigenvalue-minimisations  : 26916
 total energy-change (2. order) :-0.2179687E+03  (-0.2133937E+03)
 number of electron      34.0000008 magnetization       0.0000000     -0.0000000     -0.0000000
 augmentation part       34.0000008 magnetization       0.0000000     -0.0000000     -0.0000000

 Free energy of the ion-electron system (eV)
  ---------------------------------------------------
  alpha Z        PSCENC =        13.11178077
  Ewald energy   TEWEN  =      1955.04559991
  -Hartree energ DENC   =     -3100.12810046
  -exchange      EXHF   =         0.00000000
  -V(xc)+E(xc)   XCENC  =      -222.68321752
  PAW double counting   =       827.42259393     -538.85079914
  entropy T*S    EENTRO =         0.00000235
  eigenvalues    EBANDS =      -242.30822826
  atomic energy  EATOM  =      1329.47581950
  Solvation  Ediel_sol  =         0.00000000
  ---------------------------------------------------
  free energy    TOTEN  =        21.08545109 eV

  energy without entropy =       21.08544873  energy(sigma->0) =       21.08545030


--------------------------------------------------------------------------------------------------------




--------------------------------------- Iteration      1(   3)  ---------------------------------------


     EDDAV:  cpu time   35.9846: real time   36.7433
       DOS:  cpu time    0.0027: real time    0.0027
    --------------------------------------------
      LOOP:  cpu time   35.9872: real time   36.7460

 eigenvalue-minimisations  : 19390
 total energy-change (2. order) :-0.4311096E+02  (-0.4275667E+02)
 number of electron      34.0000008 magnetization       0.0000000     -0.0000000     -0.0000000
 augmentation part       34.0000008 magnetization       0.0000000     -0.0000000     -0.0000000

 Free energy of the ion-electron system (eV)
  ---------------------------------------------------
  alpha Z        PSCENC =        13.11178077
  Ewald energy   TEWEN  =      1955.04559991
  -Hartree energ DENC   =     -3100.12810046
  -exchange      EXHF   =         0.00000000
  -V(xc)+E(xc)   XCENC  =      -222.68321752
  PAW double counting   =       827.42259393     -538.85079914
  entropy T*S    EENTRO =         0.00000000
  eigenvalues    EBANDS =      -285.41918418
  atomic energy  EATOM  =      1329.47581950
  Solvation  Ediel_sol  =         0.00000000
  ---------------------------------------------------
  free energy    TOTEN  =       -22.02550719 eV

  energy without entropy =      -22.02550719  energy(sigma->0) =      -22.02550719


--------------------------------------------------------------------------------------------------------




--------------------------------------- Iteration      1(   4)  ---------------------------------------


     EDDAV:  cpu time   38.1019: real time   38.4854
       DOS:  cpu time    0.0024: real time    0.0024
    --------------------------------------------
      LOOP:  cpu time   38.1043: real time   38.4878

 eigenvalue-minimisations  : 22802
 total energy-change (2. order) :-0.2090496E+01  (-0.2073425E+01)
 number of electron      34.0000008 magnetization       0.0000000     -0.0000000     -0.0000000
 augmentation part       34.0000008 magnetization       0.0000000     -0.0000000     -0.0000000

 Free energy of the ion-electron system (eV)
  ---------------------------------------------------
  alpha Z        PSCENC =        13.11178077
  Ewald energy   TEWEN  =      1955.04559991
  -Hartree energ DENC   =     -3100.12810046
  -exchange      EXHF   =         0.00000000
  -V(xc)+E(xc)   XCENC  =      -222.68321752
  PAW double counting   =       827.42259393     -538.85079914
  entropy T*S    EENTRO =         0.00000000
  eigenvalues    EBANDS =      -287.50968042
  atomic energy  EATOM  =      1329.47581950
  Solvation  Ediel_sol  =         0.00000000
  ---------------------------------------------------
  free energy    TOTEN  =       -24.11600343 eV

  energy without entropy =      -24.11600343  energy(sigma->0) =      -24.11600343


--------------------------------------------------------------------------------------------------------




--------------------------------------- Iteration      1(   5)  ---------------------------------------


     EDDAV:  cpu time   42.4863: real time   42.9946
       DOS:  cpu time    0.0071: real time    0.0071
 


 total charge     
 
# of ion       s       p       d       tot
------------------------------------------
    1        1.808   1.565   0.148   3.521
    2        1.808   1.565   0.148   3.521
    3        1.479   2.285   0.018   3.782
    4        1.486   2.237   0.033   3.757
    5        1.486   2.238   0.033   3.757
    6        1.479   2.285   0.018   3.782
--------------------------------------------------
tot          9.547  12.174   0.399  22.121
 


 magnetization (x)
 
# of ion       s       p       d       tot
------------------------------------------
    1       -0.000  -0.000   0.000  -0.000
    2       -0.000  -0.000   0.000  -0.000
    3       -0.000   0.000  -0.000   0.000
    4       -0.000  -0.000  -0.000  -0.000
    5       -0.000  -0.000  -0.000  -0.000
    6       -0.000   0.000  -0.000   0.000
--------------------------------------------------
tot         -0.000  -0.000   0.000  -0.000
 


 magnetization (y)
 
# of ion       s       p       d       tot
------------------------------------------
    1       -0.000  -0.000   0.000  -0.000
    2        0.000   0.000  -0.000   0.000
    3        0.000  -0.002   0.000  -0.002
    4        0.000  -0.000   0.000   0.000
    5       -0.000   0.000  -0.000  -0.000
    6       -0.000   0.002  -0.000   0.002
--------------------------------------------------
tot          0.000  -0.000  -0.000  -0.000
 


 magnetization (z)
 
# of ion       s       p       d       tot
------------------------------------------
    1        0.000  -0.000   0.000   0.000
    2        0.000   0.000  -0.000   0.000
    3       -0.000  -0.000  -0.000  -0.000
    4       -0.000  -0.000  -0.000  -0.000
    5       -0.000   0.000   0.000   0.000
    6       -0.000   0.000  -0.000   0.000
--------------------------------------------------
tot          0.000   0.000  -0.000   0.000
 
    --------------------------------------------
      LOOP:  cpu time   42.5030: real time   43.0114

 eigenvalue-minimisations  : 26112
 total energy-change (2. order) :-0.8130939E-01  (-0.8109301E-01)
 number of electron      34.0000008 magnetization       0.0000000     -0.0000000     -0.0000000
 augmentation part       34.0000008 magnetization       0.0000000     -0.0000000     -0.0000000

 Free energy of the ion-electron system (eV)
  ---------------------------------------------------
  alpha Z        PSCENC =        13.11178077
  Ewald energy   TEWEN  =      1955.04559991
  -Hartree energ DENC   =     -3100.12810046
  -exchange      EXHF   =         0.00000000
  -V(xc)+E(xc)   XCENC  =      -222.68321752
  PAW double counting   =       827.42259393     -538.85079914
  entropy T*S    EENTRO =         0.00001265
  eigenvalues    EBANDS =      -287.59100247
  atomic energy  EATOM  =      1329.47581950
  Solvation  Ediel_sol  =         0.00000000
  ---------------------------------------------------
  free energy    TOTEN  =       -24.19731282 eV

  energy without entropy =      -24.19732547  energy(sigma->0) =      -24.19731704


--------------------------------------------------------------------------------------------------------




--------------------------------------- Iteration      1(   6)  ---------------------------------------


     EDDAV:  cpu time   39.7538: real time   40.1173
       DOS:  cpu time    0.0076: real time    0.0076
    --------------------------------------------
      LOOP:  cpu time   39.7518: real time   40.1153

 eigenvalue-minimisations  : 24288
 total energy-change (2. order) :-0.1257767E-02  (-0.1256762E-02)
 number of electron      34.0000008 magnetization       0.0000000     -0.0000000     -0.0000000
 augmentation part       34.0000008 magnetization       0.0000000     -0.0000000     -0.0000000

 Free energy of the ion-electron system (eV)
  ---------------------------------------------------
  alpha Z        PSCENC =        13.11178077
  Ewald energy   TEWEN  =      1955.04559991
  -Hartree energ DENC   =     -3100.12810046
  -exchange      EXHF   =         0.00000000
  -V(xc)+E(xc)   XCENC  =      -222.68321752
  PAW double counting   =       827.42259393     -538.85079914
  entropy T*S    EENTRO =         0.00001262
  eigenvalues    EBANDS =      -287.59226021
  atomic energy  EATOM  =      1329.47581950
  Solvation  Ediel_sol  =         0.00000000
  ---------------------------------------------------
  free energy    TOTEN  =       -24.19857059 eV

  energy without entropy =      -24.19858321  energy(sigma->0) =      -24.19857480


--------------------------------------------------------------------------------------------------------




--------------------------------------- Iteration      1(   7)  ---------------------------------------


     EDDAV:  cpu time   41.3957: real time   41.9005
       DOS:  cpu time    0.0073: real time    0.0073
    --------------------------------------------
      LOOP:  cpu time   41.4030: real time   41.9079

 eigenvalue-minimisations  : 25632
 total energy-change (2. order) :-0.3863615E-04  (-0.3860214E-04)
 number of electron      34.0000008 magnetization       0.0000000     -0.0000000     -0.0000000
 augmentation part       34.0000008 magnetization       0.0000000     -0.0000000     -0.0000000

 Free energy of the ion-electron system (eV)
  ---------------------------------------------------
  alpha Z        PSCENC =        13.11178077
  Ewald energy   TEWEN  =      1955.04559991
  -Hartree energ DENC   =     -3100.12810046
  -exchange      EXHF   =         0.00000000
  -V(xc)+E(xc)   XCENC  =      -222.68321752
  PAW double counting   =       827.42259393     -538.85079914
  entropy T*S    EENTRO =         0.00001262
  eigenvalues    EBANDS =      -287.59229884
  atomic energy  EATOM  =      1329.47581950
  Solvation  Ediel_sol  =         0.00000000
  ---------------------------------------------------
  free energy    TOTEN  =       -24.19860922 eV

  energy without entropy =      -24.19862185  energy(sigma->0) =      -24.19861343


--------------------------------------------------------------------------------------------------------




--------------------------------------- Iteration      1(   8)  ---------------------------------------


     EDDAV:  cpu time   40.3318: real time   40.7028
       DOS:  cpu time    0.0024: real time    0.0024
    --------------------------------------------
      LOOP:  cpu time   40.3342: real time   40.7052

 eigenvalue-minimisations  : 24568
 total energy-change (2. order) :-0.9530770E-05  (-0.1163296E-05)
 number of electron      34.0000008 magnetization       0.0000000     -0.0000000     -0.0000000
 augmentation part       34.0000008 magnetization       0.0000000     -0.0000000     -0.0000000

 Free energy of the ion-electron system (eV)
  ---------------------------------------------------
  alpha Z        PSCENC =        13.11178077
  Ewald energy   TEWEN  =      1955.04559991
  -Hartree energ DENC   =     -3100.12810046
  -exchange      EXHF   =         0.00000000
  -V(xc)+E(xc)   XCENC  =      -222.68321752
  PAW double counting   =       827.42259393     -538.85079914
  entropy T*S    EENTRO =         0.00000000
  eigenvalues    EBANDS =      -287.59229575
  atomic energy  EATOM  =      1329.47581950
  Solvation  Ediel_sol  =         0.00000000
  ---------------------------------------------------
  free energy    TOTEN  =       -24.19861876 eV

  energy without entropy =      -24.19861876  energy(sigma->0) =      -24.19861876


--------------------------------------------------------------------------------------------------------




--------------------------------------- Iteration      1(   9)  ---------------------------------------


     EDDAV:  cpu time   34.4711: real time   34.8493
       DOS:  cpu time    0.0074: real time    0.0074
    --------------------------------------------
      LOOP:  cpu time   34.4785: real time   34.8567

 eigenvalue-minimisations  : 19944
 total energy-change (2. order) : 0.8304819E-05  (-0.6143217E-07)
 number of electron      34.0000008 magnetization       0.0000000     -0.0000000     -0.0000000
 augmentation part       34.0000008 magnetization       0.0000000     -0.0000000     -0.0000000

 Free energy of the ion-electron system (eV)
  ---------------------------------------------------
  alpha Z        PSCENC =        13.11178077
  Ewald energy   TEWEN  =      1955.04559991
  -Hartree energ DENC   =     -3100.12810046
  -exchange      EXHF   =         0.00000000
  -V(xc)+E(xc)   XCENC  =      -222.68321752
  PAW double counting   =       827.42259393     -538.85079914
  entropy T*S    EENTRO =         0.00001262
  eigenvalues    EBANDS =      -287.59230007
  atomic energy  EATOM  =      1329.47581950
  Solvation  Ediel_sol  =         0.00000000
  ---------------------------------------------------
  free energy    TOTEN  =       -24.19861045 eV

  energy without entropy =      -24.19862307  energy(sigma->0) =      -24.19861466


--------------------------------------------------------------------------------------------------------




--------------------------------------- Iteration      1(  10)  ---------------------------------------


     EDDAV:  cpu time   27.9678: real time   28.2769
       DOS:  cpu time    0.0069: real time    0.0069
 


 total charge     
 
# of ion       s       p       d       tot
------------------------------------------
    1        1.804   1.563   0.148   3.515
    2        1.804   1.563   0.148   3.515
    3        1.479   2.285   0.018   3.782
    4        1.486   2.238   0.033   3.757
    5        1.486   2.238   0.033   3.757
    6        1.479   2.285   0.018   3.782
--------------------------------------------------
tot          9.538  12.173   0.399  22.110
 


 magnetization (x)
 
# of ion       s       p       d       tot
------------------------------------------
    1       -0.000  -0.000  -0.000  -0.000
    2       -0.000   0.000   0.000  -0.000
    3        0.000  -0.000  -0.000  -0.000
    4        0.000   0.000   0.000   0.000
    5        0.000   0.000   0.000   0.000
    6        0.000   0.000  -0.000   0.000
--------------------------------------------------
tot         -0.000  -0.000  -0.000  -0.000
 


 magnetization (y)
 
# of ion       s       p       d       tot
------------------------------------------
    1       -0.000  -0.001   0.000  -0.001
    2        0.000   0.001  -0.000   0.001
    3        0.000  -0.002   0.000  -0.002
    4        0.000  -0.000   0.000   0.000
    5       -0.000   0.000  -0.000  -0.000
    6       -0.000   0.002  -0.000   0.002
--------------------------------------------------
tot         -0.000  -0.000  -0.000  -0.000
 


 magnetization (z)
 
# of ion       s       p       d       tot
------------------------------------------
    1       -0.000  -0.000   0.000  -0.000
    2        0.000   0.000  -0.000   0.000
    3       -0.000  -0.000  -0.000  -0.000
    4       -0.000  -0.000   0.000  -0.000
    5       -0.000   0.000  -0.000   0.000
    6       -0.000   0.000  -0.000   0.000
--------------------------------------------------
tot          0.000   0.000  -0.000   0.000
 
    --------------------------------------------
      LOOP:  cpu time   27.9841: real time   28.2933

 eigenvalue-minimisations  : 14352
 total energy-change (2. order) :-0.3078412E-08  (-0.3345759E-08)
 number of electron      34.0000008 magnetization       0.0000000     -0.0000000     -0.0000000
 augmentation part       34.0000008 magnetization       0.0000000     -0.0000000     -0.0000000

 Free energy of the ion-electron system (eV)
  ---------------------------------------------------
  alpha Z        PSCENC =        13.11178077
  Ewald energy   TEWEN  =      1955.04559991
  -Hartree energ DENC   =     -3100.12810046
  -exchange      EXHF   =         0.00000000
  -V(xc)+E(xc)   XCENC  =      -222.68321752
  PAW double counting   =       827.42259393     -538.85079914
  entropy T*S    EENTRO =         0.00001262
  eigenvalues    EBANDS =      -287.59230007
  atomic energy  EATOM  =      1329.47581950
  Solvation  Ediel_sol  =         0.00000000
  ---------------------------------------------------
  free energy    TOTEN  =       -24.19861045 eV

  energy without entropy =      -24.19862308  energy(sigma->0) =      -24.19861466


--------------------------------------------------------------------------------------------------------




 average (electrostatic) potential at core
  the test charge radii are     1.4024  1.0808
  (the norm of the test charge is              1.0000)
       1 -69.8986       2 -69.8986       3 -60.6671       4 -61.1944       5 -61.1944
       6 -60.6671
 
 
 
 E-fermi :  -3.0389     XC(G=0):  -2.9799     alpha+bet : -2.3571


 k-point     1 :       0.0000    0.0000    0.0000
  band No.  band energies     occupation 
      1     -17.1565      1.00000
      2     -17.1565      1.00000
      3     -15.9251      1.00000
      4     -15.9251      1.00000
      5     -14.8647      1.00000
      6     -14.8647      1.00000
      7     -14.5857      1.00000
      8     -14.5857      1.00000
      9     -12.7510      1.00000
     10     -12.7510      1.00000
     11     -11.6191      1.00000
     12     -11.6191      1.00000
     13      -7.1525      1.00000
     14      -7.1525      1.00000
     15      -6.0834      1.00000
     16      -6.0834      1.00000
     17      -5.9850      1.00000
     18      -5.9850      1.00000
     19      -5.5604      1.00000
     20      -5.5604      1.00000
     21      -5.4968      1.00000
     22      -5.4968      1.00000
     23      -5.0574      1.00000
     24      -5.0574      1.00000
     25      -4.4721      1.00000
     26      -4.4721      1.00000
     27      -3.9112      1.00000
     28      -3.9112      1.00000
     29      -3.7337      1.00000
     30      -3.7337      1.00000
     31      -3.4500      1.00000
     32      -3.4500      1.00000
     33      -3.0462      0.96697
     34      -3.0461      0.96696
     35      -2.1467      0.00000
     36      -2.1467      0.00000
     37      -1.2802      0.00000
     38      -1.2802      0.00000
     39      -0.7852      0.00000
     40      -0.7852      0.00000
     41      -0.5942      0.00000
     42      -0.5942      0.00000

 k-point     2 :       0.0102    0.0000    0.0000
  band No.  band energies     occupation 
      1     -17.1560      1.00000
      2     -17.1560      1.00000
      3     -15.9250      1.00000
      4     -15.9250      1.00000
      5     -14.8645      1.00000
      6     -14.8645      1.00000
      7     -14.5850      1.00000
      8     -14.5850      1.00000
      9     -12.7514      1.00000
     10     -12.7514      1.00000
     11     -11.6200      1.00000
     12     -11.6200      1.00000
     13      -7.1520      1.00000
     14      -7.1520      1.00000
     15      -6.0868      1.00000
     16      -6.0868      1.00000
     17      -5.9876      1.00000
     18      -5.9876      1.00000
     19      -5.5848      1.00000
     20      -5.5848      1.00000
     21      -5.4719      1.00000
     22      -5.4719      1.00000
     23      -5.0553      1.00000
     24      -5.0553      1.00000
     25      -4.4718      1.00000
     26      -4.4718      1.00000
     27      -3.9104      1.00000
     28      -3.9104      1.00000
     29      -3.7353      1.00000
     30      -3.7353      1.00000
     31      -3.4501      1.00000
     32      -3.4501      1.00000
     33      -3.0526      1.03301
     34      -3.0526      1.03301
     35      -2.1418      0.00000
     36      -2.1418      0.00000
     37      -1.2783      0.00000
     38      -1.2783      0.00000
     39      -0.7856      0.00000
     40      -0.7856      0.00000
     41      -0.5942      0.00000
     42      -0.5941      0.00000

 k-point     3 :       0.0204    0.0000    0.0000
  band No.  band energies     occupation 
      1     -17.1545      1.00000
      2     -17.1545      1.00000
      3     -15.9244      1.00000
      4     -15.9244      1.00000
      5     -14.8642      1.00000
      6     -14.8642      1.00000
      7     -14.5830      1.00000
      8     -14.5830      1.00000
      9     -12.7528      1.00000
     10     -12.7528      1.00000
     11     -11.6226      1.00000
     12     -11.6226      1.00000
     13      -7.1504      1.00000
     14      -7.1504      1.00000
     15      -6.0970      1.00000
     16      -6.0970      1.00000
     17      -5.9952      1.00000
     18      -5.9952      1.00000
     19      -5.6250      1.00000
     20      -5.6250      1.00000
     21      -5.4299      1.00000
     22      -5.4299      1.00000
     23      -5.0491      1.00000
     24      -5.0491      1.00000
     25      -4.4709      1.00000
     26      -4.4709      1.00000
     27      -3.9084      1.00000
     28      -3.9084      1.00000
     29      -3.7399      1.00000
     30      -3.7399      1.00000
     31      -3.4504      1.00000
     32      -3.4504      1.00000
     33      -3.0713      1.00002
     34      -3.0713      1.00002
     35      -2.1278      0.00000
     36      -2.1278      0.00000
     37      -1.2729      0.00000
     38      -1.2729      0.00000
     39      -0.7865      0.00000
     40      -0.7865      0.00000
     41      -0.5941      0.00000
     42      -0.5940      0.00000

 k-point     4 :       0.0306    0.0000    0.0000
  band No.  band energies     occupation 
      1     -17.1521      1.00000
      2     -17.1521      1.00000
      3     -15.9236      1.00000
      4     -15.9236      1.00000
      5     -14.8636      1.00000
      6     -14.8636      1.00000
      7     -14.5797      1.00000
      8     -14.5797      1.00000
      9     -12.7549      1.00000
     10     -12.7549      1.00000
     11     -11.6269      1.00000
     12     -11.6269      1.00000
     13      -7.1478      1.00000
     14      -7.1478      1.00000
     15      -6.1139      1.00000
     16      -6.1139      1.00000
     17      -6.0076      1.00000
     18      -6.0076      1.00000
     19      -5.6655      1.00000
     20      -5.6655      1.00000
     21      -5.3868      1.00000
     22      -5.3868      1.00000
     23      -5.0385      1.00000
     24      -5.0385      1.00000
     25      -4.4695      1.00000
     26      -4.4695      1.00000
     27      -3.9060      1.00000
     28      -3.9060      1.00000
     29      -3.7463      1.00000
     30      -3.7463      1.00000
     31      -3.4514      1.00000
[...]
  0.000   0.000   0.000   0.000   0.000   0.000   0.000   0.000   0.000   0.000   0.000   0.000   0.000
  0.000   0.000   0.000   0.000   0.000   0.000   0.000   0.000   0.000   0.000   0.000   0.000   0.000
  0.000   0.000   0.000   0.000   0.000   0.000   0.000   0.000   0.000   0.000   0.000   0.000   0.000
  0.000   0.000   0.000   0.000   0.000   0.000   0.000   0.000   0.000   0.000   0.000   0.000   0.000
  0.000   0.000   0.000   0.000   0.000   0.000   0.000   0.000   0.000   0.000   0.000   0.000   0.000
  0.000   0.000   0.000   0.000   0.000   0.000   0.000   0.000   0.000   0.000   0.000   0.000   0.000
  0.000   0.000   0.000   0.000   0.000   0.000   0.000   0.000   0.000   0.000   0.000   0.000   0.000
  0.000   0.000   0.000   0.000   0.000   0.000   0.000   0.000   0.000   0.000   0.000   0.000   0.000
  0.000   0.000   0.000   0.000   0.000   0.000   0.000   0.000   0.000   0.000   0.000   0.000   0.000
  0.000   0.000   0.000   0.000   0.000   0.000   0.000   0.000   0.000   0.000   0.000   0.000   0.000
  0.000   0.000   0.000   0.000   0.000   0.000   0.000   0.000   0.000   0.000   0.000   0.000   0.000
  0.000   0.000   0.000   0.000   0.000   0.000   0.000   0.000   0.000   0.000   0.000   0.000   0.000
 total augmentation occupancy for first ion, spin component:           4
  0.000   0.000   0.000   0.000   0.000   0.000   0.000   0.000   0.000   0.000   0.000   0.000   0.000
  0.000   0.000   0.000   0.000   0.000   0.000   0.000   0.000   0.000   0.000   0.000   0.000   0.000
  0.000   0.000   0.000   0.000   0.000   0.000   0.000   0.000   0.000   0.000   0.000   0.000   0.000
  0.000   0.000   0.000   0.000   0.000   0.000   0.000   0.000   0.000   0.000   0.000   0.000   0.000
  0.000   0.000   0.000   0.000   0.000   0.000   0.000   0.000   0.000   0.000   0.000   0.000   0.000
  0.000   0.000   0.000   0.000   0.000   0.000   0.000   0.000   0.000   0.000   0.000   0.000   0.000
  0.000   0.000   0.000   0.000   0.000   0.000   0.000   0.000   0.000   0.000   0.000   0.000   0.000
  0.000   0.000   0.000   0.000   0.000   0.000   0.000   0.000   0.000   0.000   0.000   0.000   0.000
  0.000   0.000   0.000   0.000   0.000   0.000   0.000   0.000   0.000   0.000   0.000   0.000   0.000
  0.000   0.000   0.000   0.000   0.000   0.000   0.000   0.000   0.000   0.000   0.000   0.000   0.000
  0.000   0.000   0.000   0.000   0.000   0.000   0.000   0.000   0.000   0.000   0.000   0.000   0.000
  0.000   0.000   0.000   0.000   0.000   0.000   0.000   0.000   0.000   0.000   0.000   0.000   0.000
  0.000   0.000   0.000   0.000   0.000   0.000   0.000   0.000   0.000   0.000   0.000   0.000   0.000


------------------------ aborting loop because EDIFF is reached ----------------------------------------


 


 total charge     
 
# of ion       s       p       d       tot
------------------------------------------
    1        1.804   1.563   0.148   3.515
    2        1.804   1.563   0.148   3.515
    3        1.479   2.285   0.018   3.782
    4        1.486   2.238   0.033   3.757
    5        1.486   2.238   0.033   3.757
    6        1.479   2.285   0.018   3.782
--------------------------------------------------
tot          9.538  12.173   0.399  22.110
 


 magnetization (x)
 
# of ion       s       p       d       tot
------------------------------------------
    1       -0.000  -0.000  -0.000  -0.000
    2       -0.000   0.000   0.000  -0.000
    3        0.000  -0.000  -0.000  -0.000
    4        0.000   0.000   0.000   0.000
    5        0.000   0.000   0.000   0.000
    6        0.000   0.000  -0.000   0.000
--------------------------------------------------
tot         -0.000  -0.000  -0.000  -0.000
 


 magnetization (y)
 
# of ion       s       p       d       tot
------------------------------------------
    1       -0.000  -0.001   0.000  -0.001
    2        0.000   0.001  -0.000   0.001
    3        0.000  -0.002   0.000  -0.002
    4        0.000  -0.000   0.000   0.000
    5       -0.000   0.000  -0.000  -0.000
    6       -0.000   0.002  -0.000   0.002
--------------------------------------------------
tot         -0.000  -0.000  -0.000  -0.000
 


 magnetization (z)
 
# of ion       s       p       d       tot
------------------------------------------
    1       -0.000  -0.000   0.000  -0.000
    2        0.000   0.000  -0.000   0.000
    3       -0.000  -0.000  -0.000  -0.000
    4       -0.000  -0.000   0.000  -0.000
    5       -0.000   0.000  -0.000   0.000
    6       -0.000   0.000  -0.000   0.000
--------------------------------------------------
tot          0.000   0.000  -0.000   0.000
 
    CHARGE:  cpu time    2.4399: real time    2.4576
    FORLOC:  cpu time    0.0025: real time    0.0027
    FORNL :  cpu time    1.7308: real time    1.7407
    STRESS:  cpu time    2.8677: real time    3.1483
    FORCOR:  cpu time    0.0845: real time    0.0861
    FORHAR:  cpu time    0.0098: real time    0.0105
    OFIELD:  cpu time    0.0010: real time    0.0010

  FORCE on cell =-STRESS in cart. coord.  units (eV):
  Direction    XX          YY          ZZ          XY          YZ          ZX
  --------------------------------------------------------------------------------------
  Alpha Z    13.11178    13.11178    13.11178
  Ewald    2756.76718  2752.89820 -3554.62065    -0.00000     0.00000   -38.79759
  Hartree  2978.28002  2989.03616 -2867.14511     0.00000     0.00000   -10.55619
  E(xc)    -133.12913  -133.13616  -133.52243    -0.00000    -0.00000     0.01540
  Local   -6216.11183 -6233.80330  5944.98940    -0.00000     0.00000    35.18827
  n-local   316.69915   316.78755   316.60882     0.00000    -0.00000    -0.52680
  augment   -70.59954   -70.95920   -70.45059     0.00000     0.00000    -0.46381
  Kinetic   355.34911   366.60371   351.14213     0.00000     0.00000    15.34344
  Fock        0.00000     0.00000     0.00000     0.00000     0.00000     0.00000
  -------------------------------------------------------------------------------------
  Total       0.36673     0.53874     0.11336     0.00000    -0.00000     0.20272
  in kB       0.88392     1.29851     0.27323     0.00000    -0.00000     0.48861
  external pressure =        0.82 kB  Pullay stress =        0.00 kB


 VOLUME and BASIS-vectors are now :
 -----------------------------------------------------------------------------
  energy-cutoff  :      400.00
  volume of cell :      664.73
      direct lattice vectors                 reciprocal lattice vectors
     7.883217348 -2.123029049  0.000000000     0.063425880 -0.235512557  0.000000000
     7.883217348  2.123029049  0.000000000     0.063425880  0.235512557  0.000000000
     0.000000000  0.000000000 19.859042146     0.000000000  0.000000000  0.050354896

  length of vectors
     8.164090157  8.164090157 19.859042146     0.243903684  0.243903684  0.050354896


 FORCES acting on ions
    electron-ion (+dipol)            ewald-force                    non-local-force                 convergence-correction
 -----------------------------------------------------------------------------------------------
   0.208E+02 -.489E-12 -.689E+02   -.245E+02 -.130E-14 0.718E+02   0.365E+01 0.465E-17 -.292E+01   0.775E-02 0.177E-13 0.573E-02
   -.208E+02 0.775E-12 0.689E+02   0.245E+02 -.129E-14 -.718E+02   -.365E+01 -.114E-18 0.292E+01   -.775E-02 0.205E-13 -.573E-02
   -.283E+01 0.199E-12 0.270E+03   0.268E+01 0.110E-13 -.273E+03   0.108E+00 -.137E-18 0.281E+01   0.189E-02 -.108E-13 -.230E-01
   -.445E+01 0.105E-12 0.203E+03   0.524E+01 -.664E-14 -.206E+03   -.844E+00 -.499E-18 0.343E+01   0.126E-02 -.984E-13 -.181E-01
   0.445E+01 0.133E-12 -.203E+03   -.524E+01 0.389E-14 0.206E+03   0.844E+00 -.146E-17 -.343E+01   -.126E-02 -.197E-12 0.181E-01
   0.283E+01 -.163E-12 -.270E+03   -.268E+01 -.235E-14 0.273E+03   -.108E+00 0.104E-20 -.281E+01   -.189E-02 0.199E-14 0.230E-01
 -----------------------------------------------------------------------------------------------
   0.862E-12 0.560E-12 -.258E-11   -.533E-14 0.327E-14 0.568E-13   0.444E-15 0.244E-17 -.444E-15   -.107E-11 -.266E-12 -.538E-11
 
 
 POSITION                                       TOTAL-FORCE (eV/Angst)
 -----------------------------------------------------------------------------------
     10.16736      0.00000      0.39447        -0.015037     -0.000000      0.018819
      5.59907     -0.00000     19.46458         0.015037      0.000000     -0.018819
     11.87859     -0.00000     18.15714        -0.036834      0.000000     -0.042901
      0.68182      0.00000     18.86925        -0.050876     -0.000000      0.007281
     15.08461     -0.00000      0.98980         0.050876     -0.000000     -0.007281
      3.88785      0.00000      1.70190         0.036834     -0.000000      0.042901
 -----------------------------------------------------------------------------------
    total drift:                               -0.000000      0.000000     -0.000000


--------------------------------------------------------------------------------------------------------



  FREE ENERGIE OF THE ION-ELECTRON SYSTEM (eV)
  ---------------------------------------------------
  free  energy   TOTEN  =       -24.19861045 eV

  energy  without entropy=      -24.19862308  energy(sigma->0) =      -24.19861466
 


--------------------------------------------------------------------------------------------------------


    POTLOK:  cpu time    0.0999: real time    0.1002


--------------------------------------------------------------------------------------------------------


     LOOP+:  cpu time  382.3961: real time  387.1456
    4ORBIT:  cpu time    0.0000: real time    0.0000

 Spin-Orbit-Coupling matrix elements

 Ion:    1  E_soc:     -0.8732130
 l=   1
     0.0000000    -0.1434001    -0.1417477
    -0.1434001     0.0000000    -0.1465221
    -0.1417477    -0.1465221     0.0000000
 l=   2
     0.0000000    -0.0004147     0.0000000    -0.0004278    -0.0013150
    -0.0004147     0.0000000    -0.0008752    -0.0004311    -0.0003537
     0.0000000    -0.0008752     0.0000000    -0.0008547     0.0000000
    -0.0004278    -0.0004311    -0.0008547     0.0000000    -0.0002643
    -0.0013150    -0.0003537     0.0000000    -0.0002643     0.0000000
 l=   3
     0.0000000     0.0000000     0.0000000     0.0000000     0.0000000     0.0000000     0.0000000
     0.0000000     0.0000000     0.0000000     0.0000000     0.0000000     0.0000000     0.0000000
     0.0000000     0.0000000     0.0000000     0.0000000     0.0000000     0.0000000     0.0000000
     0.0000000     0.0000000     0.0000000     0.0000000     0.0000000     0.0000000     0.0000000
     0.0000000     0.0000000     0.0000000     0.0000000     0.0000000     0.0000000     0.0000000
     0.0000000     0.0000000     0.0000000     0.0000000     0.0000000     0.0000000     0.0000000
     0.0000000     0.0000000     0.0000000     0.0000000     0.0000000     0.0000000     0.0000000

 Ion:    2  E_soc:     -0.8732130
 l=   1
     0.0000000    -0.1434001    -0.1417477
    -0.1434001     0.0000000    -0.1465221
    -0.1417477    -0.1465221     0.0000000
 l=   2
     0.0000000    -0.0004147     0.0000000    -0.0004278    -0.0013150
    -0.0004147     0.0000000    -0.0008752    -0.0004311    -0.0003537
     0.0000000    -0.0008752     0.0000000    -0.0008547     0.0000000
    -0.0004278    -0.0004311    -0.0008547     0.0000000    -0.0002643
    -0.0013150    -0.0003537     0.0000000    -0.0002643     0.0000000
 l=   3
     0.0000000     0.0000000     0.0000000     0.0000000     0.0000000     0.0000000     0.0000000
     0.0000000     0.0000000     0.0000000     0.0000000     0.0000000     0.0000000     0.0000000
     0.0000000     0.0000000     0.0000000     0.0000000     0.0000000     0.0000000     0.0000000
     0.0000000     0.0000000     0.0000000     0.0000000     0.0000000     0.0000000     0.0000000
     0.0000000     0.0000000     0.0000000     0.0000000     0.0000000     0.0000000     0.0000000
     0.0000000     0.0000000     0.0000000     0.0000000     0.0000000     0.0000000     0.0000000
     0.0000000     0.0000000     0.0000000     0.0000000     0.0000000     0.0000000     0.0000000

 Ion:    3  E_soc:     -0.0440583
 l=   1
     0.0000000    -0.0072476    -0.0076488
    -0.0072476     0.0000000    -0.0071741
    -0.0076488    -0.0071741     0.0000000
 l=   2
     0.0000000     0.0000019     0.0000000     0.0000060     0.0000083
     0.0000019     0.0000000     0.0000042     0.0000039     0.0000021
     0.0000000     0.0000042     0.0000000     0.0000138     0.0000000
     0.0000060     0.0000039     0.0000138     0.0000000     0.0000012
     0.0000083     0.0000021     0.0000000     0.0000012     0.0000000
 l=   3
     0.0000000     0.0000000     0.0000000     0.0000000     0.0000000     0.0000000     0.0000000
     0.0000000     0.0000000     0.0000000     0.0000000     0.0000000     0.0000000     0.0000000
     0.0000000     0.0000000     0.0000000     0.0000000     0.0000000     0.0000000     0.0000000
     0.0000000     0.0000000     0.0000000     0.0000000     0.0000000     0.0000000     0.0000000
     0.0000000     0.0000000     0.0000000     0.0000000     0.0000000     0.0000000     0.0000000
     0.0000000     0.0000000     0.0000000     0.0000000     0.0000000     0.0000000     0.0000000
     0.0000000     0.0000000     0.0000000     0.0000000     0.0000000     0.0000000     0.0000000

 Ion:    4  E_soc:     -0.0439580
 l=   1
     0.0000000    -0.0073172    -0.0075134
    -0.0073172     0.0000000    -0.0071663
    -0.0075134    -0.0071663     0.0000000
 l=   2
     0.0000000     0.0000000     0.0000000     0.0000006     0.0000064
     0.0000000     0.0000000     0.0000036     0.0000021     0.0000014
     0.0000000     0.0000036     0.0000000     0.0000042     0.0000000
     0.0000006     0.0000021     0.0000042     0.0000000    -0.0000005
     0.0000064     0.0000014     0.0000000    -0.0000005     0.0000000
 l=   3
     0.0000000     0.0000000     0.0000000     0.0000000     0.0000000     0.0000000     0.0000000
     0.0000000     0.0000000     0.0000000     0.0000000     0.0000000     0.0000000     0.0000000
     0.0000000     0.0000000     0.0000000     0.0000000     0.0000000     0.0000000     0.0000000
     0.0000000     0.0000000     0.0000000     0.0000000     0.0000000     0.0000000     0.0000000
     0.0000000     0.0000000     0.0000000     0.0000000     0.0000000     0.0000000     0.0000000
     0.0000000     0.0000000     0.0000000     0.0000000     0.0000000     0.0000000     0.0000000
     0.0000000     0.0000000     0.0000000     0.0000000     0.0000000     0.0000000     0.0000000

 Ion:    5  E_soc:     -0.0439580
 l=   1
     0.0000000    -0.0073172    -0.0075134
    -0.0073172     0.0000000    -0.0071663
    -0.0075134    -0.0071663     0.0000000
 l=   2
     0.0000000     0.0000000     0.0000000     0.0000006     0.0000064
     0.0000000     0.0000000     0.0000036     0.0000021     0.0000014
     0.0000000     0.0000036     0.0000000     0.0000042     0.0000000
     0.0000006     0.0000021     0.0000042     0.0000000    -0.0000005
     0.0000064     0.0000014     0.0000000    -0.0000005     0.0000000
 l=   3
     0.0000000     0.0000000     0.0000000     0.0000000     0.0000000     0.0000000     0.0000000
     0.0000000     0.0000000     0.0000000     0.0000000     0.0000000     0.0000000     0.0000000
     0.0000000     0.0000000     0.0000000     0.0000000     0.0000000     0.0000000     0.0000000
     0.0000000     0.0000000     0.0000000     0.0000000     0.0000000     0.0000000     0.0000000
     0.0000000     0.0000000     0.0000000     0.0000000     0.0000000     0.0000000     0.0000000
     0.0000000     0.0000000     0.0000000     0.0000000     0.0000000     0.0000000     0.0000000
     0.0000000     0.0000000     0.0000000     0.0000000     0.0000000     0.0000000     0.0000000

 Ion:    6  E_soc:     -0.0440583
 l=   1
     0.0000000    -0.0072476    -0.0076488
    -0.0072476     0.0000000    -0.0071741
    -0.0076488    -0.0071741     0.0000000
 l=   2
     0.0000000     0.0000019     0.0000000     0.0000060     0.0000083
     0.0000019     0.0000000     0.0000042     0.0000039     0.0000021
     0.0000000     0.0000042     0.0000000     0.0000138     0.0000000
     0.0000060     0.0000039     0.0000138     0.0000000     0.0000012
     0.0000083     0.0000021     0.0000000     0.0000012     0.0000000
 l=   3
     0.0000000     0.0000000     0.0000000     0.0000000     0.0000000     0.0000000     0.0000000
     0.0000000     0.0000000     0.0000000     0.0000000     0.0000000     0.0000000     0.0000000
     0.0000000     0.0000000     0.0000000     0.0000000     0.0000000     0.0000000     0.0000000
     0.0000000     0.0000000     0.0000000     0.0000000     0.0000000     0.0000000     0.0000000
     0.0000000     0.0000000     0.0000000     0.0000000     0.0000000     0.0000000     0.0000000
     0.0000000     0.0000000     0.0000000     0.0000000     0.0000000     0.0000000     0.0000000
     0.0000000     0.0000000     0.0000000     0.0000000     0.0000000     0.0000000     0.0000000
 


 total charge     
 
# of ion       s       p       d       tot
------------------------------------------
    1        1.804   1.563   0.148   3.515
    2        1.804   1.563   0.148   3.515
    3        1.479   2.285   0.018   3.782
    4        1.486   2.238   0.033   3.757
    5        1.486   2.238   0.033   3.757
    6        1.479   2.285   0.018   3.782
--------------------------------------------------
tot          9.538  12.173   0.399  22.110
 


 magnetization (x)
 
# of ion       s       p       d       tot
------------------------------------------
    1       -0.000  -0.000  -0.000  -0.000
    2       -0.000   0.000   0.000  -0.000
    3        0.000  -0.000  -0.000  -0.000
    4        0.000   0.000   0.000   0.000
    5        0.000   0.000   0.000   0.000
    6        0.000   0.000  -0.000   0.000
--------------------------------------------------
tot         -0.000  -0.000  -0.000  -0.000
 


 magnetization (y)
 
# of ion       s       p       d       tot
------------------------------------------
    1       -0.000  -0.001   0.000  -0.001
    2        0.000   0.001  -0.000   0.001
    3        0.000  -0.002   0.000  -0.002
    4        0.000  -0.000   0.000   0.000
    5       -0.000   0.000  -0.000  -0.000
    6       -0.000   0.002  -0.000   0.002
--------------------------------------------------
tot         -0.000  -0.000  -0.000  -0.000
 


 magnetization (z)
 
# of ion       s       p       d       tot
------------------------------------------
    1       -0.000  -0.000   0.000  -0.000
    2        0.000   0.000  -0.000   0.000
    3       -0.000  -0.000  -0.000  -0.000
    4       -0.000  -0.000   0.000  -0.000
    5       -0.000   0.000  -0.000   0.000
    6       -0.000   0.000  -0.000   0.000
--------------------------------------------------
tot          0.000   0.000  -0.000   0.000
 

 total amount of memory used by VASP MPI-rank0   143444. kBytes
=======================================================================

   base      :      30000. kBytes
   nonl-proj :      23266. kBytes
   fftplans  :       2995. kBytes
   grid      :      10275. kBytes
   one-center:         32. kBytes
   wavefun   :      76876. kBytes
 
  
  
 General timing and accounting informations for this job:
 ========================================================
  
                  Total CPU time used (sec):      401.463
                            User time (sec):      398.955
                          System time (sec):        2.508
                         Elapsed time (sec):      407.549
  
                   Maximum memory used (kb):      355936.
                   Average memory used (kb):           0.
  
                          Minor page faults:        73990
                          Major page faults:            0
                 Voluntary context switches:         6347
