 vasp.5.3.5 31Mar14 (build May 07 2018 14:57:44) complex                        
  
 executed on             LinuxIFC date 2018.06.13  10:38:03
 running on   32 total cores
 distrk:  each k-point on   32 cores,    1 groups
 distr:  one band on NCORES_PER_BAND=   8 cores,    4 groups


--------------------------------------------------------------------------------------------------------


 INCAR:
 POTCAR:    PAW_PBE C 08Apr2002                   
 POTCAR:    PAW_PBE Te 08Apr2002                  
 POTCAR:    PAW_PBE Bi 08Apr2002                  
 POTCAR:    PAW_PBE C 08Apr2002                   
  local pseudopotential read in
  partial core-charges read in
  partial kinetic energy density read in
  atomic valenz-charges read in
  non local Contribution for L=           0  read in
    real space projection operators read in
  non local Contribution for L=           0  read in
    real space projection operators read in
  non local Contribution for L=           1  read in
    real space projection operators read in
  non local Contribution for L=           1  read in
    real space projection operators read in
    PAW grid and wavefunctions read in
 
   number of l-projection  operators is LMAX  =           4
   number of lm-projection operators is LMMAX =           8
 
 POTCAR:    PAW_PBE Te 08Apr2002                  
  local pseudopotential read in
  partial core-charges read in
  partial kinetic energy density read in
  atomic valenz-charges read in
  non local Contribution for L=           0  read in
    real space projection operators read in
  non local Contribution for L=           0  read in
    real space projection operators read in
  non local Contribution for L=           1  read in
    real space projection operators read in
  non local Contribution for L=           1  read in
    real space projection operators read in
  non local Contribution for L=           2  read in
    real space projection operators read in
    PAW grid and wavefunctions read in
 
   number of l-projection  operators is LMAX  =           5
   number of lm-projection operators is LMMAX =          13
 
 POTCAR:    PAW_PBE Bi 08Apr2002                  
  local pseudopotential read in
  partial core-charges read in
  partial kinetic energy density read in
  kinetic energy density of atom read in
  atomic valenz-charges read in
  non local Contribution for L=           0  read in
    real space projection operators read in
  non local Contribution for L=           0  read in
    real space projection operators read in
  non local Contribution for L=           1  read in
    real space projection operators read in
  non local Contribution for L=           1  read in
    real space projection operators read in
  non local Contribution for L=           2  read in
    real space projection operators read in
    PAW grid and wavefunctions read in
 
   number of l-projection  operators is LMAX  =           5
   number of lm-projection operators is LMMAX =          13
 
 Optimization of the real space projectors (new method)

 maximal supplied QI-value         = 25.13
 optimisation between [QCUT,QGAM] = [ 10.05, 20.36] = [ 28.30,116.06] Ry 
 Optimized for a Real-space Cutoff    1.30 Angstroem

   l    n(q)    QCUT    max X(q) W(low)/X(q) W(high)/X(q)  e(spline) 
   0      8    10.053   115.676    0.49E-03    0.72E-03    0.18E-06
   0      8    10.053    87.132    0.49E-03    0.71E-03    0.18E-06
   1      7    10.053     4.429    0.32E-03    0.31E-03    0.18E-06
   1      7    10.053     2.733    0.23E-03    0.19E-03    0.20E-06
 Optimization of the real space projectors (new method)

 maximal supplied QI-value         = 16.25
 optimisation between [QCUT,QGAM] = [ 10.24, 20.48] = [ 29.35,117.42] Ry 
 Optimized for a Real-space Cutoff    1.42 Angstroem

   l    n(q)    QCUT    max X(q) W(low)/X(q) W(high)/X(q)  e(spline) 
   0      9    10.239   224.858    0.56E-04    0.13E-03    0.81E-07
   0      9    10.239   205.313    0.57E-04    0.13E-03    0.82E-07
   1      8    10.239   119.695    0.24E-03    0.27E-03    0.71E-07
   1      8    10.239    84.282    0.23E-03    0.26E-03    0.70E-07
   2      8    10.239     5.599    0.27E-04    0.88E-04    0.47E-07
 Optimization of the real space projectors (new method)

 maximal supplied QI-value         = 12.47
 optimisation between [QCUT,QGAM] = [ 10.23, 20.45] = [ 29.29,117.16] Ry 
 Optimized for a Real-space Cutoff    1.65 Angstroem

   l    n(q)    QCUT    max X(q) W(low)/X(q) W(high)/X(q)  e(spline) 
   0     10    10.227    93.365    0.26E-04    0.28E-04    0.63E-07
   0     10    10.227    75.373    0.27E-04    0.30E-04    0.69E-07
   1     10    10.227    32.978    0.13E-03    0.13E-03    0.12E-06
   1     10    10.227    35.433    0.15E-03    0.15E-03    0.13E-06
   2      9    10.227     8.108    0.95E-05    0.54E-04    0.65E-07
  PAW_PBE C 08Apr2002                   :
 energy of atom  1       EATOM= -147.1560
 kinetic energy error for atom=    0.0288 (will be added to EATOM!!)
  PAW_PBE Te 08Apr2002                  :
 energy of atom  2       EATOM= -223.2721
 kinetic energy error for atom=    0.0011 (will be added to EATOM!!)
  PAW_PBE Bi 08Apr2002                  :
 energy of atom  3       EATOM= -150.8133
 kinetic energy error for atom=    0.0001 (will be added to EATOM!!)
 
 
 POSCAR: Bi2Te3 BULK 0001, x6 QL                 
  positions in direct lattice
  velocities in cartesian coordinates
 exchange correlation table for  LEXCH =        8
   RHO(1)=    0.500       N(1)  =     2000
   RHO(2)=  100.500       N(2)  =     4000
 


--------------------------------------------------------------------------------------------------------


 ion  position               nearest neighbor table
   1  0.667  0.000  0.633-   2 1.44   6 1.44   3 1.44
   2  1.000  0.333  0.633-   1 1.44   5 1.44   4 1.44
   3  0.667  0.667  0.633-   5 1.44   4 1.44   1 1.44
   4  0.333  0.333  0.633-   6 1.44   3 1.44   2 1.44
   5  1.000  0.667  0.633-   3 1.44   2 1.44   6 1.44
   6  0.333  0.000  0.633-   4 1.44   1 1.44   5 1.44
   7  0.333  0.667  0.554-  16 3.07  16 3.07  16 3.07
   8  0.667  0.333  0.475-  17 3.26  17 3.26  17 3.26  16 3.27  16 3.27  16 3.27
   9  0.000  0.000  0.397-  17 3.08  17 3.08  17 3.08
  10  0.333  0.667  0.333-  18 3.08  18 3.08  18 3.08
  11  0.667  0.333  0.254-  18 3.27  18 3.27  18 3.27  19 3.27  19 3.27  19 3.27
  12  0.000  0.000  0.176-  19 3.08  19 3.08  19 3.08
  13  0.333  0.667  0.111-  20 3.08  20 3.08  20 3.08
  14  0.667  0.333  0.032-  20 3.27  20 3.27  20 3.27  21 3.27  21 3.27  21 3.27
  15  0.000  0.000  0.953-  21 3.07  21 3.07  21 3.07
  16  0.000  0.000  0.518-   7 3.07   7 3.07   7 3.07   8 3.27   8 3.27   8 3.27
  17  0.333  0.667  0.433-   9 3.08   9 3.08   9 3.08   8 3.26   8 3.26   8 3.26
  18  0.000  0.000  0.297-  10 3.08  10 3.08  10 3.08  11 3.27  11 3.27  11 3.27
  19  0.333  0.667  0.212-  12 3.08  12 3.08  12 3.08  11 3.27  11 3.27  11 3.27
  20  0.000  0.000  0.074-  13 3.08  13 3.08  13 3.08  14 3.27  14 3.27  14 3.27
  21  0.333  0.667  0.989-  15 3.07  15 3.07  15 3.07  14 3.27  14 3.27  14 3.27
 
  LATTYP: Found a hexagonal cell.
 ALAT       =     4.3270508447
 C/A-ratio  =    11.4732007183
  
  Lattice vectors:
  
 A1 = (   2.1635254224,  -3.7473359389,   0.0000000000)
 A2 = (   2.1635254224,   3.7473359389,   0.0000000000)
 A3 = (   0.0000000000,   0.0000000000,  49.6451228600)


Analysis of symmetry for initial positions (statically):
=====================================================================
 Subroutine PRICEL returns:
 Original cell was already a primitive cell.
 

 Routine SETGRP: Setting up the symmetry group for a 
 hexagonal supercell.


 Subroutine GETGRP returns: Found  6 space group operations
 (whereof  6 operations were pure point group operations)
 out of a pool of 24 trial point group operations.


The static configuration has the point symmetry C_3v.


Analysis of symmetry for dynamics (positions and initial velocities):
=====================================================================
 Subroutine PRICEL returns:
 Original cell was already a primitive cell.
 

 Routine SETGRP: Setting up the symmetry group for a 
 hexagonal supercell.


 Subroutine GETGRP returns: Found  6 space group operations
 (whereof  6 operations were pure point group operations)
 out of a pool of 24 trial point group operations.


The dynamic configuration has the point symmetry C_3v.


Analysis of structural, dynamic, and magnetic symmetry:
=====================================================================
 Subroutine PRICEL returns:
 Original cell was already a primitive cell.
 

 Routine SETGRP: Setting up the symmetry group for a 
 hexagonal supercell.


 Subroutine GETGRP returns: Found  6 space group operations
 (whereof  6 operations were pure point group operations)
 out of a pool of 24 trial point group operations.


The (compounded) configuration has the point symmetry C_3v.
 
 
 KPOINTS: bands                                   
  interpolating k-points between supplied coordinates
  k-points in reciprocal lattice
Space group operators:
 irot       det(A)        alpha          n_x          n_y          n_z        tau_x        tau_y        tau_z
    1     1.000000     0.000001     1.000000     0.000000     0.000000     0.000000     0.000000     0.000000
    2     1.000000   120.000000     0.000000     0.000000    -1.000000     0.000000     0.000000     0.000000
    3     1.000000   120.000000     0.000000     0.000000     1.000000     0.000000     0.000000     0.000000
    4    -1.000000   180.000000     0.500000    -0.866025     0.000000     0.000000     0.000000     0.000000
    5    -1.000000   180.000000    -0.500000    -0.866025     0.000000     0.000000     0.000000     0.000000
    6    -1.000000   180.000000     1.000000     0.000000     0.000000     0.000000     0.000000     0.000000


--------------------------------------------------------------------------------------------------------




 Dimension of arrays:
   k-points           NKPTS =    200   k-points in BZ     NKDIM =    200   number of bands    NBANDS=    132
   number of dos      NEDOS =    301   number of ions     NIONS =     21
   non local maximal  LDIM  =      5   non local SUM 2l+1 LMDIM =     13
   total plane-waves  NPLWV = 144000
   max r-space proj   IRMAX =   3406   max aug-charges    IRDMAX=  17238
   dimension x,y,z NGX =    24 NGY =   24 NGZ =  250
   dimension x,y,z NGXF=    48 NGYF=   48 NGZF=  500
   support grid    NGXF=    48 NGYF=   48 NGZF=  500
   ions per type =               6   9   6
 NGX,Y,Z   is equivalent  to a cutoff of   9.22,  9.22,  8.37 a.u.
 NGXF,Y,Z  is equivalent  to a cutoff of  18.44, 18.44, 16.74 a.u.


 I would recommend the setting:
   dimension x,y,z NGX =    21 NGY =   21 NGZ =  243
 SYSTEM =  unknown system                          
 POSCAR =  Bi2Te3 BULK 0001, x6 QL                 

 Startparameter for this run:
   NWRITE =      1    write-flag & timer
   PREC   = normal    normal or accurate (medium, high low for compatibility)
   ISTART =      0    job   : 0-new  1-cont  2-samecut
   ICHARG =     11    charge: 1-file 2-atom 10-const
   ISPIN  =      1    spin polarized calculation?
   LNONCOLLINEAR =      T non collinear calculations
   LSORBIT =      T    spin-orbit coupling
   INIWAV =      1    electr: 0-lowe 1-rand  2-diag
   LASPH  =      F    aspherical Exc in radial PAW
   METAGGA=      F    non-selfconsistent MetaGGA calc.

 Electronic Relaxation 1
   ENCUT  =  400.0 eV  29.40 Ry    5.42 a.u.   7.06  7.06 80.96*2*pi/ulx,y,z
   ENINI  =  400.0     initial cutoff
   ENAUG  =  644.9 eV  augmentation charge cutoff
   NELM   =    100;   NELMIN=  2; NELMDL=  0     # of ELM steps 
   EDIFF  = 0.1E-05   stopping-criterion for ELM
   LREAL  =      T    real-space projection
   NLSPLINE    = F    spline interpolate recip. space projectors
   LCOMPAT=      F    compatible to vasp.4.4
   GGA_COMPAT  = T    GGA compatible to vasp.4.4-vasp.4.6
   LMAXPAW     = -100 max onsite density
   LMAXMIX     =    4 max onsite mixed and CHGCAR
   VOSKOWN=      0    Vosko Wilk Nusair interpolation
   ROPT   =   -0.00050  -0.00050  -0.00050
 Ionic relaxation
   EDIFFG = 0.1E-04   stopping-criterion for IOM
   NSW    =      0    number of steps for IOM
   NBLOCK =      1;   KBLOCK =      1    inner block; outer block 
   IBRION =     -1    ionic relax: 0-MD 1-quasi-New 2-CG
   NFREE  =      0    steps in history (QN), initial steepest desc. (CG)
   ISIF   =      2    stress and relaxation
   IWAVPR =     10    prediction:  0-non 1-charg 2-wave 3-comb
   ISYM   =      1    0-nonsym 1-usesym 2-fastsym
   LCORR  =      T    Harris-Foulkes like correction to forces

   POTIM  = 0.5000    time-step for ionic-motion
   TEIN   =    0.0    initial temperature
   TEBEG  =    0.0;   TEEND  =   0.0 temperature during run
   SMASS  =  -3.00    Nose mass-parameter (am)
   estimated Nose-frequenzy (Omega)   =  0.10E-29 period in steps =****** mass=  -0.428E-27a.u.
   SCALEE = 1.0000    scale energy and forces
   NPACO  =    256;   APACO  = 16.0  distance and # of slots for P.C.
   PSTRESS=    0.0 pullay stress

  Mass of Ions in am
   POMASS =  12.01127.60208.98
  Ionic Valenz
   ZVAL   =   4.00  6.00  5.00
  Atomic Wigner-Seitz radii
   RWIGS  =  -1.00 -1.00 -1.00
  virtual crystal weights 
   VCA    =   1.00  1.00  1.00
   NELECT =     108.0000    total number of electrons
   NUPDOWN=      -1.0000    fix difference up-down

 DOS related values:
   EMIN   =  10.00;   EMAX   =-10.00  energy-range for DOS
   EFERMI =   0.00
   ISMEAR =     1;   SIGMA  =   0.10  broadening in eV -4-tet -1-fermi 0-gaus

 Electronic relaxation 2 (details)
   IALGO  =     68    algorithm
   LDIAG  =      T    sub-space diagonalisation (order eigenvalues)
   LSUBROT=      F    optimize rotation matrix (better conditioning)
   TURBO    =      0    0=normal 1=particle mesh
   IRESTART =      0    0=no restart 2=restart with 2 vectors
   NREBOOT  =      0    no. of reboots
   NMIN     =      0    reboot dimension
   EREF     =   0.00    reference energy to select bands
   IMIX   =      4    mixing-type and parameters
     AMIX     =   0.40;   BMIX     =  1.00
     AMIX_MAG =   1.60;   BMIX_MAG =  1.00
     AMIN     =   0.10
     WC   =   100.;   INIMIX=   1;  MIXPRE=   1;  MAXMIX=  50

 Intra band minimization:
   WEIMIN = 0.0000     energy-eigenvalue tresh-hold
   EBREAK =  0.19E-08  absolut break condition
   DEPER  =   0.30     relativ break condition  

   TIME   =   0.40     timestep for ELM

  volume/ion in A,a.u.               =      38.33       258.68
  Fermi-wavevector in a.u.,A,eV,Ry     =   0.838080  1.583742  9.556443  0.702379
  Thomas-Fermi vector in A             =   1.952076
 
 Write flags
   LWAVE  =      F    write WAVECAR
   LCHARG =      F    write CHGCAR
   LVTOT  =      F    write LOCPOT, total local potential
   LVHAR  =      F    write LOCPOT, Hartree potential only
   LELF   =      F    write electronic localiz. function (ELF)
   LORBIT =     11    0 simple, 1 ext, 2 COOP (PROOUT)


 Dipole corrections
   LMONO  =      F    monopole corrections only (constant potential shift)
   LDIPOL =      F    correct potential (dipole corrections)
   IDIPOL =      0    1-x, 2-y, 3-z, 4-all directions 
   EPSILON=  1.0000000 bulk dielectric constant

 Exchange correlation treatment:
   GGA     =    --    GGA type
   LEXCH   =     8    internal setting for exchange type
   VOSKOWN=      0    Vosko Wilk Nusair interpolation
   LHFCALC =     F    Hartree Fock is set to
   LHFONE  =     F    Hartree Fock one center treatment
   AEXX    =    0.0000 exact exchange contribution

 Linear response parameters
   LEPSILON=     F    determine dielectric tensor
   LRPA    =     F    only Hartree local field effects (RPA)
   LNABLA  =     F    use nabla operator in PAW spheres
   LVEL    =     F    velocity operator in full k-point grid
   LINTERFAST=   F  fast interpolation
   KINTER  =     0    interpolate to denser k-point grid
   CSHIFT  =0.1000    complex shift for real part using Kramers Kronig
   OMEGAMAX=  -1.0    maximum frequency
   DEG_THRESHOLD= 0.2000000E-02 threshold for treating states as degnerate
   RTIME   =    0.100 relaxation time in fs

 Orbital magnetization related:
   ORBITALMAG=     F  switch on orbital magnetization
   LCHIMAG   =     F  perturbation theory with respect to B field
   DQ        =  0.001000  dq finite difference perturbation B field



--------------------------------------------------------------------------------------------------------


 Static calculation
 charge density and potential remain constant during run
 non collinear spin polarized calculation
 RMM-DIIS sequential band-by-band and
  variant of blocked Davidson during initial phase
 perform sub-space diagonalisation
    before iterative eigenvector-optimisation
 no mixing
 using additional bands           78
 real space projection scheme for non local part
 use partial core corrections
 calculate Harris-corrections to forces 
   (improved forces if not selfconsistent)
 use gradient corrections 
 WARNING: stress and forces are not correct
  (second derivative of E(xc) not defined)
 use of overlap-Matrix (Vanderbilt PP)
 Methfessel and Paxton  Order N= 1 SIGMA  =   0.10


--------------------------------------------------------------------------------------------------------


  energy-cutoff  :      400.00
  volume of cell :      804.99
      direct lattice vectors                 reciprocal lattice vectors
     2.163525422 -3.747335939  0.000000000     0.231104287 -0.133428123  0.000000000
     2.163525422  3.747335939  0.000000000     0.231104287  0.133428123  0.000000000
     0.000000000  0.000000000 49.645122860     0.000000000  0.000000000  0.020142966

  length of vectors
     4.327050831  4.327050831 49.645122860     0.266856245  0.266856245  0.020142966


 
 k-points in units of 2pi/SCALE and weight: bands                                   
   0.11555214 -0.06671406  0.00000000       0.005
   0.11438495 -0.06604018  0.00000000       0.005
   0.11321776 -0.06536630  0.00000000       0.005
   0.11205056 -0.06469242  0.00000000       0.005
   0.11088337 -0.06401854  0.00000000       0.005
   0.10971618 -0.06334466  0.00000000       0.005
   0.10854898 -0.06267078  0.00000000       0.005
   0.10738179 -0.06199691  0.00000000       0.005
   0.10621460 -0.06132303  0.00000000       0.005
   0.10504740 -0.06064915  0.00000000       0.005
   0.10388021 -0.05997527  0.00000000       0.005
   0.10271302 -0.05930139  0.00000000       0.005
   0.10154582 -0.05862751  0.00000000       0.005
   0.10037863 -0.05795363  0.00000000       0.005
   0.09921144 -0.05727975  0.00000000       0.005
   0.09804424 -0.05660587  0.00000000       0.005
   0.09687705 -0.05593199  0.00000000       0.005
   0.09570986 -0.05525811  0.00000000       0.005
   0.09454266 -0.05458423  0.00000000       0.005
   0.09337547 -0.05391035  0.00000000       0.005
   0.09220828 -0.05323647  0.00000000       0.005
   0.09104108 -0.05256259  0.00000000       0.005
   0.08987389 -0.05188871  0.00000000       0.005
   0.08870670 -0.05121484  0.00000000       0.005
   0.08753950 -0.05054096  0.00000000       0.005
   0.08637231 -0.04986708  0.00000000       0.005
   0.08520512 -0.04919320  0.00000000       0.005
   0.08403792 -0.04851932  0.00000000       0.005
   0.08287073 -0.04784544  0.00000000       0.005
   0.08170354 -0.04717156  0.00000000       0.005
   0.08053634 -0.04649768  0.00000000       0.005
   0.07936915 -0.04582380  0.00000000       0.005
   0.07820196 -0.04514992  0.00000000       0.005
   0.07703476 -0.04447604  0.00000000       0.005
   0.07586757 -0.04380216  0.00000000       0.005
   0.07470038 -0.04312828  0.00000000       0.005
   0.07353318 -0.04245440  0.00000000       0.005
   0.07236599 -0.04178052  0.00000000       0.005
   0.07119880 -0.04110664  0.00000000       0.005
   0.07003160 -0.04043276  0.00000000       0.005
   0.06886441 -0.03975889  0.00000000       0.005
   0.06769722 -0.03908501  0.00000000       0.005
   0.06653002 -0.03841113  0.00000000       0.005
   0.06536283 -0.03773725  0.00000000       0.005
   0.06419564 -0.03706337  0.00000000       0.005
   0.06302844 -0.03638949  0.00000000       0.005
   0.06186125 -0.03571561  0.00000000       0.005
   0.06069406 -0.03504173  0.00000000       0.005
   0.05952686 -0.03436785  0.00000000       0.005
   0.05835967 -0.03369397  0.00000000       0.005
   0.05719248 -0.03302009  0.00000000       0.005
   0.05602528 -0.03234621  0.00000000       0.005
   0.05485809 -0.03167233  0.00000000       0.005
   0.05369089 -0.03099845  0.00000000       0.005
   0.05252370 -0.03032457  0.00000000       0.005
   0.05135651 -0.02965069  0.00000000       0.005
   0.05018931 -0.02897681  0.00000000       0.005
   0.04902212 -0.02830294  0.00000000       0.005
   0.04785493 -0.02762906  0.00000000       0.005
   0.04668773 -0.02695518  0.00000000       0.005
   0.04552054 -0.02628130  0.00000000       0.005
   0.04435335 -0.02560742  0.00000000       0.005
   0.04318615 -0.02493354  0.00000000       0.005
   0.04201896 -0.02425966  0.00000000       0.005
   0.04085177 -0.02358578  0.00000000       0.005
   0.03968457 -0.02291190  0.00000000       0.005
   0.03851738 -0.02223802  0.00000000       0.005
   0.03735019 -0.02156414  0.00000000       0.005
   0.03618299 -0.02089026  0.00000000       0.005
   0.03501580 -0.02021638  0.00000000       0.005
   0.03384861 -0.01954250  0.00000000       0.005
   0.03268141 -0.01886862  0.00000000       0.005
   0.03151422 -0.01819474  0.00000000       0.005
   0.03034703 -0.01752086  0.00000000       0.005
   0.02917983 -0.01684699  0.00000000       0.005
   0.02801264 -0.01617311  0.00000000       0.005
   0.02684545 -0.01549923  0.00000000       0.005
   0.02567825 -0.01482535  0.00000000       0.005
   0.02451106 -0.01415147  0.00000000       0.005
   0.02334387 -0.01347759  0.00000000       0.005
   0.02217667 -0.01280371  0.00000000       0.005
   0.02100948 -0.01212983  0.00000000       0.005
   0.01984229 -0.01145595  0.00000000       0.005
   0.01867509 -0.01078207  0.00000000       0.005
   0.01750790 -0.01010819  0.00000000       0.005
   0.01634071 -0.00943431  0.00000000       0.005
   0.01517351 -0.00876043  0.00000000       0.005
   0.01400632 -0.00808655  0.00000000       0.005
   0.01283913 -0.00741267  0.00000000       0.005
   0.01167193 -0.00673879  0.00000000       0.005
   0.01050474 -0.00606491  0.00000000       0.005
   0.00933755 -0.00539104  0.00000000       0.005
   0.00817035 -0.00471716  0.00000000       0.005
   0.00700316 -0.00404328  0.00000000       0.005
   0.00583597 -0.00336940  0.00000000       0.005
   0.00466877 -0.00269552  0.00000000       0.005
   0.00350158 -0.00202164  0.00000000       0.005
   0.00233439 -0.00134776  0.00000000       0.005
   0.00116719 -0.00067388  0.00000000       0.005
   0.00000000  0.00000000  0.00000000       0.005
   0.00000000  0.00000000  0.00000000       0.005
   0.00233439  0.00000000  0.00000000       0.005
   0.00466877  0.00000000  0.00000000       0.005
   0.00700316  0.00000000  0.00000000       0.005
   0.00933755  0.00000000  0.00000000       0.005
   0.01167193  0.00000000  0.00000000       0.005
   0.01400632  0.00000000  0.00000000       0.005
   0.01634071  0.00000000  0.00000000       0.005
   0.01867509  0.00000000  0.00000000       0.005
   0.02100948  0.00000000  0.00000000       0.005
   0.02334387  0.00000000  0.00000000       0.005
   0.02567825  0.00000000  0.00000000       0.005
   0.02801264  0.00000000  0.00000000       0.005
   0.03034703  0.00000000  0.00000000       0.005
   0.03268141  0.00000000  0.00000000       0.005
   0.03501580  0.00000000  0.00000000       0.005
   0.03735019  0.00000000  0.00000000       0.005
   0.03968457  0.00000000  0.00000000       0.005
   0.04201896  0.00000000  0.00000000       0.005
   0.04435335  0.00000000  0.00000000       0.005
   0.04668773  0.00000000  0.00000000       0.005
   0.04902212  0.00000000  0.00000000       0.005
   0.05135651  0.00000000  0.00000000       0.005
   0.05369089  0.00000000  0.00000000       0.005
   0.05602528  0.00000000  0.00000000       0.005
   0.05835967  0.00000000  0.00000000       0.005
   0.06069406  0.00000000  0.00000000       0.005
   0.06302844  0.00000000  0.00000000       0.005
   0.06536283  0.00000000  0.00000000       0.005
   0.06769722  0.00000000  0.00000000       0.005
   0.07003160  0.00000000  0.00000000       0.005
   0.07236599  0.00000000  0.00000000       0.005
   0.07470038  0.00000000  0.00000000       0.005
   0.07703476  0.00000000  0.00000000       0.005
   0.07936915  0.00000000  0.00000000       0.005
   0.08170354  0.00000000  0.00000000       0.005
   0.08403792  0.00000000  0.00000000       0.005
   0.08637231  0.00000000  0.00000000       0.005
   0.08870670  0.00000000  0.00000000       0.005
   0.09104108  0.00000000  0.00000000       0.005
   0.09337547  0.00000000  0.00000000       0.005
   0.09570986  0.00000000  0.00000000       0.005
   0.09804424  0.00000000  0.00000000       0.005
   0.10037863  0.00000000  0.00000000       0.005
   0.10271302  0.00000000  0.00000000       0.005
   0.10504740  0.00000000  0.00000000       0.005
   0.10738179  0.00000000  0.00000000       0.005
   0.10971618  0.00000000  0.00000000       0.005
   0.11205056  0.00000000  0.00000000       0.005
   0.11438495  0.00000000  0.00000000       0.005
   0.11671934  0.00000000  0.00000000       0.005
   0.11905372  0.00000000  0.00000000       0.005
   0.12138811  0.00000000  0.00000000       0.005
   0.12372250  0.00000000  0.00000000       0.005
   0.12605688  0.00000000  0.00000000       0.005
   0.12839127  0.00000000  0.00000000       0.005
   0.13072566  0.00000000  0.00000000       0.005
   0.13306004  0.00000000  0.00000000       0.005
   0.13539443  0.00000000  0.00000000       0.005
   0.13772882  0.00000000  0.00000000       0.005
   0.14006320  0.00000000  0.00000000       0.005
   0.14239759  0.00000000  0.00000000       0.005
   0.14473198  0.00000000  0.00000000       0.005
   0.14706636  0.00000000  0.00000000       0.005
   0.14940075  0.00000000  0.00000000       0.005
   0.15173514  0.00000000  0.00000000       0.005
   0.15406952  0.00000000  0.00000000       0.005
   0.15640391  0.00000000  0.00000000       0.005
   0.15873830  0.00000000  0.00000000       0.005
   0.16107268  0.00000000  0.00000000       0.005
   0.16340707  0.00000000  0.00000000       0.005
   0.16574146  0.00000000  0.00000000       0.005
   0.16807585  0.00000000  0.00000000       0.005
   0.17041023  0.00000000  0.00000000       0.005
   0.17274462  0.00000000  0.00000000       0.005
   0.17507901  0.00000000  0.00000000       0.005
   0.17741339  0.00000000  0.00000000       0.005
   0.17974778  0.00000000  0.00000000       0.005
   0.18208217  0.00000000  0.00000000       0.005
   0.18441655  0.00000000  0.00000000       0.005
   0.18675094  0.00000000  0.00000000       0.005
   0.18908533  0.00000000  0.00000000       0.005
   0.19141971  0.00000000  0.00000000       0.005
   0.19375410  0.00000000  0.00000000       0.005
   0.19608849  0.00000000  0.00000000       0.005
   0.19842287  0.00000000  0.00000000       0.005
   0.20075726  0.00000000  0.00000000       0.005
   0.20309165  0.00000000  0.00000000       0.005
   0.20542603  0.00000000  0.00000000       0.005
   0.20776042  0.00000000  0.00000000       0.005
   0.21009481  0.00000000  0.00000000       0.005
   0.21242919  0.00000000  0.00000000       0.005
   0.21476358  0.00000000  0.00000000       0.005
   0.21709797  0.00000000  0.00000000       0.005
   0.21943235  0.00000000  0.00000000       0.005
   0.22176674  0.00000000  0.00000000       0.005
   0.22410113  0.00000000  0.00000000       0.005
   0.22643551  0.00000000  0.00000000       0.005
   0.22876990  0.00000000  0.00000000       0.005
   0.23110429  0.00000000  0.00000000       0.005
 
 k-points in reciprocal lattice and weights: bands                                   
   0.50000000  0.00000000  0.00000000       0.005
   0.49494949  0.00000000  0.00000000       0.005
   0.48989899  0.00000000  0.00000000       0.005
   0.48484848  0.00000000  0.00000000       0.005
   0.47979798  0.00000000  0.00000000       0.005
   0.47474747  0.00000000  0.00000000       0.005
   0.46969697  0.00000000  0.00000000       0.005
   0.46464646  0.00000000  0.00000000       0.005
   0.45959596  0.00000000  0.00000000       0.005
   0.45454545  0.00000000  0.00000000       0.005
   0.44949495  0.00000000  0.00000000       0.005
   0.44444444  0.00000000  0.00000000       0.005
   0.43939394  0.00000000  0.00000000       0.005
   0.43434343  0.00000000  0.00000000       0.005
   0.42929293  0.00000000  0.00000000       0.005
   0.42424242  0.00000000  0.00000000       0.005
   0.41919192  0.00000000  0.00000000       0.005
   0.41414141  0.00000000  0.00000000       0.005
   0.40909091  0.00000000  0.00000000       0.005
   0.40404040  0.00000000  0.00000000       0.005
   0.39898990  0.00000000  0.00000000       0.005
   0.39393939  0.00000000  0.00000000       0.005
   0.38888889  0.00000000  0.00000000       0.005
   0.38383838  0.00000000  0.00000000       0.005
   0.37878788  0.00000000  0.00000000       0.005
   0.37373737  0.00000000  0.00000000       0.005
   0.36868687  0.00000000  0.00000000       0.005
   0.36363636  0.00000000  0.00000000       0.005
   0.35858586  0.00000000  0.00000000       0.005
   0.35353535  0.00000000  0.00000000       0.005
   0.34848485  0.00000000  0.00000000       0.005
   0.34343434  0.00000000  0.00000000       0.005
   0.33838384  0.00000000  0.00000000       0.005
   0.33333333  0.00000000  0.00000000       0.005
   0.32828283  0.00000000  0.00000000       0.005
   0.32323232  0.00000000  0.00000000       0.005
   0.31818182  0.00000000  0.00000000       0.005
   0.31313131  0.00000000  0.00000000       0.005
   0.30808081  0.00000000  0.00000000       0.005
   0.30303030  0.00000000  0.00000000       0.005
   0.29797980  0.00000000  0.00000000       0.005
   0.29292929  0.00000000  0.00000000       0.005
   0.28787879  0.00000000  0.00000000       0.005
   0.28282828  0.00000000  0.00000000       0.005
   0.27777778  0.00000000  0.00000000       0.005
   0.27272727  0.00000000  0.00000000       0.005
   0.26767677  0.00000000  0.00000000       0.005
   0.26262626  0.00000000  0.00000000       0.005
   0.25757576  0.00000000  0.00000000       0.005
   0.25252525  0.00000000  0.00000000       0.005
   0.24747475  0.00000000  0.00000000       0.005
   0.24242424  0.00000000  0.00000000       0.005
   0.23737374  0.00000000  0.00000000       0.005
   0.23232323  0.00000000  0.00000000       0.005
   0.22727273  0.00000000  0.00000000       0.005
   0.22222222  0.00000000  0.00000000       0.005
   0.21717172  0.00000000  0.00000000       0.005
   0.21212121  0.00000000  0.00000000       0.005
   0.20707071  0.00000000  0.00000000       0.005
   0.20202020  0.00000000  0.00000000       0.005
   0.19696970  0.00000000  0.00000000       0.005
   0.19191919  0.00000000  0.00000000       0.005
   0.18686869  0.00000000  0.00000000       0.005
   0.18181818  0.00000000  0.00000000       0.005
   0.17676768  0.00000000  0.00000000       0.005
   0.17171717  0.00000000  0.00000000       0.005
   0.16666667  0.00000000  0.00000000       0.005
   0.16161616  0.00000000  0.00000000       0.005
   0.15656566  0.00000000  0.00000000       0.005
   0.15151515  0.00000000  0.00000000       0.005
   0.14646465  0.00000000  0.00000000       0.005
   0.14141414  0.00000000  0.00000000       0.005
   0.13636364  0.00000000  0.00000000       0.005
   0.13131313  0.00000000  0.00000000       0.005
   0.12626263  0.00000000  0.00000000       0.005
   0.12121212  0.00000000  0.00000000       0.005
   0.11616162  0.00000000  0.00000000       0.005
   0.11111111  0.00000000  0.00000000       0.005
   0.10606061  0.00000000  0.00000000       0.005
   0.10101010  0.00000000  0.00000000       0.005
   0.09595960  0.00000000  0.00000000       0.005
   0.09090909  0.00000000  0.00000000       0.005
   0.08585859  0.00000000  0.00000000       0.005
   0.08080808  0.00000000  0.00000000       0.005
   0.07575758  0.00000000  0.00000000       0.005
   0.07070707  0.00000000  0.00000000       0.005
   0.06565657  0.00000000  0.00000000       0.005
   0.06060606  0.00000000  0.00000000       0.005
   0.05555556  0.00000000  0.00000000       0.005
   0.05050505  0.00000000  0.00000000       0.005
   0.04545455  0.00000000  0.00000000       0.005
   0.04040404  0.00000000  0.00000000       0.005
   0.03535354  0.00000000  0.00000000       0.005
   0.03030303  0.00000000  0.00000000       0.005
   0.02525253  0.00000000  0.00000000       0.005
   0.02020202  0.00000000  0.00000000       0.005
   0.01515152  0.00000000  0.00000000       0.005
   0.01010101  0.00000000  0.00000000       0.005
   0.00505051  0.00000000  0.00000000       0.005
   0.00000000  0.00000000  0.00000000       0.005
   0.00000000  0.00000000  0.00000000       0.005
   0.00505051  0.00505051  0.00000000       0.005
   0.01010101  0.01010101  0.00000000       0.005
   0.01515152  0.01515152  0.00000000       0.005
   0.02020202  0.02020202  0.00000000       0.005
   0.02525253  0.02525253  0.00000000       0.005
   0.03030303  0.03030303  0.00000000       0.005
   0.03535354  0.03535354  0.00000000       0.005
   0.04040404  0.04040404  0.00000000       0.005
   0.04545455  0.04545455  0.00000000       0.005
   0.05050505  0.05050505  0.00000000       0.005
   0.05555556  0.05555556  0.00000000       0.005
   0.06060606  0.06060606  0.00000000       0.005
   0.06565657  0.06565657  0.00000000       0.005
   0.07070707  0.07070707  0.00000000       0.005
   0.07575758  0.07575758  0.00000000       0.005
   0.08080808  0.08080808  0.00000000       0.005
   0.08585859  0.08585859  0.00000000       0.005
   0.09090909  0.09090909  0.00000000       0.005
   0.09595960  0.09595960  0.00000000       0.005
   0.10101010  0.10101010  0.00000000       0.005
   0.10606061  0.10606061  0.00000000       0.005
   0.11111111  0.11111111  0.00000000       0.005
   0.11616162  0.11616162  0.00000000       0.005
   0.12121212  0.12121212  0.00000000       0.005
   0.12626263  0.12626263  0.00000000       0.005
   0.13131313  0.13131313  0.00000000       0.005
   0.13636364  0.13636364  0.00000000       0.005
   0.14141414  0.14141414  0.00000000       0.005
   0.14646465  0.14646465  0.00000000       0.005
   0.15151515  0.15151515  0.00000000       0.005
   0.15656566  0.15656566  0.00000000       0.005
   0.16161616  0.16161616  0.00000000       0.005
   0.16666667  0.16666667  0.00000000       0.005
   0.17171717  0.17171717  0.00000000       0.005
   0.17676768  0.17676768  0.00000000       0.005
   0.18181818  0.18181818  0.00000000       0.005
   0.18686869  0.18686869  0.00000000       0.005
   0.19191919  0.19191919  0.00000000       0.005
   0.19696970  0.19696970  0.00000000       0.005
   0.20202020  0.20202020  0.00000000       0.005
   0.20707071  0.20707071  0.00000000       0.005
   0.21212121  0.21212121  0.00000000       0.005
   0.21717172  0.21717172  0.00000000       0.005
   0.22222222  0.22222222  0.00000000       0.005
   0.22727273  0.22727273  0.00000000       0.005
   0.23232323  0.23232323  0.00000000       0.005
   0.23737374  0.23737374  0.00000000       0.005
   0.24242424  0.24242424  0.00000000       0.005
   0.24747475  0.24747475  0.00000000       0.005
   0.25252525  0.25252525  0.00000000       0.005
   0.25757576  0.25757576  0.00000000       0.005
   0.26262626  0.26262626  0.00000000       0.005
   0.26767677  0.26767677  0.00000000       0.005
   0.27272727  0.27272727  0.00000000       0.005
   0.27777778  0.27777778  0.00000000       0.005
   0.28282828  0.28282828  0.00000000       0.005
   0.28787879  0.28787879  0.00000000       0.005
   0.29292929  0.29292929  0.00000000       0.005
   0.29797980  0.29797980  0.00000000       0.005
   0.30303030  0.30303030  0.00000000       0.005
   0.30808081  0.30808081  0.00000000       0.005
   0.31313131  0.31313131  0.00000000       0.005
   0.31818182  0.31818182  0.00000000       0.005
   0.32323232  0.32323232  0.00000000       0.005
   0.32828283  0.32828283  0.00000000       0.005
   0.33333333  0.33333333  0.00000000       0.005
   0.33838384  0.33838384  0.00000000       0.005
   0.34343434  0.34343434  0.00000000       0.005
   0.34848485  0.34848485  0.00000000       0.005
   0.35353535  0.35353535  0.00000000       0.005
   0.35858586  0.35858586  0.00000000       0.005
   0.36363636  0.36363636  0.00000000       0.005
   0.36868687  0.36868687  0.00000000       0.005
   0.37373737  0.37373737  0.00000000       0.005
   0.37878788  0.37878788  0.00000000       0.005
   0.38383838  0.38383838  0.00000000       0.005
   0.38888889  0.38888889  0.00000000       0.005
   0.39393939  0.39393939  0.00000000       0.005
   0.39898990  0.39898990  0.00000000       0.005
   0.40404040  0.40404040  0.00000000       0.005
   0.40909091  0.40909091  0.00000000       0.005
   0.41414141  0.41414141  0.00000000       0.005
   0.41919192  0.41919192  0.00000000       0.005
   0.42424242  0.42424242  0.00000000       0.005
   0.42929293  0.42929293  0.00000000       0.005
   0.43434343  0.43434343  0.00000000       0.005
   0.43939394  0.43939394  0.00000000       0.005
   0.44444444  0.44444444  0.00000000       0.005
   0.44949495  0.44949495  0.00000000       0.005
   0.45454545  0.45454545  0.00000000       0.005
   0.45959596  0.45959596  0.00000000       0.005
   0.46464646  0.46464646  0.00000000       0.005
   0.46969697  0.46969697  0.00000000       0.005
   0.47474747  0.47474747  0.00000000       0.005
   0.47979798  0.47979798  0.00000000       0.005
   0.48484848  0.48484848  0.00000000       0.005
   0.48989899  0.48989899  0.00000000       0.005
   0.49494949  0.49494949  0.00000000       0.005
   0.50000000  0.50000000  0.00000000       0.005
 
 position of ions in fractional coordinates (direct lattice) 
   0.66673609  0.00008545  0.63329735
   0.99991455  0.33326391  0.63329735
   0.66673609  0.66665063  0.63329735
   0.33334937  0.33326391  0.63329735
   0.99991455  0.66665063  0.63329735
   0.33334937  0.00008545  0.63329735
   0.33333333  0.66666667  0.55361745
   0.66666667  0.33333333  0.47527218
   0.00000000  0.00000000  0.39675646
   0.33333333  0.66666667  0.33325905
   0.66666667  0.33333333  0.25447553
   0.00000000  0.00000000  0.17577070
   0.33333333  0.66666667  0.11054496
   0.66666667  0.33333333  0.03195627
   0.00000000  0.00000000  0.95345847
   0.00000000  0.00000000  0.51763517
   0.33333333  0.66666667  0.43293809
   0.00000000  0.00000000  0.29695486
   0.33333333  0.66666667  0.21199575
   0.00000000  0.00000000  0.07439550
   0.33333333  0.66666667  0.98937114
 
 position of ions in cartesian coordinates  (Angst):
   1.44268535 -2.49816387 31.44012493
   2.88436549 -2.49816387 31.44012493
   2.88481606 -0.00032022 31.44012493
   1.44223478 -0.00032022 31.44012493
   3.60565613 -1.24885184 31.44012493
   0.72139471 -1.24885184 31.44012493
   2.16352542  1.24911198 27.48440653
   2.16352542 -1.24911198 23.59494561
   0.00000000  0.00000000 19.69702310
   2.16352542  1.24911198 16.54468635
   2.16352542 -1.24911198 12.63346911
   0.00000000  0.00000000  8.72615814
   2.16352542  1.24911198  5.48801789
   2.16352542 -1.24911198  1.58647300
   0.00000000  0.00000000 47.33456279
   0.00000000  0.00000000 25.69806180
   2.16352542  1.24911198 21.49326444
   0.00000000  0.00000000 14.74236073
   2.16352542  1.24911198 10.52455503
   0.00000000  0.00000000  3.69337388
   2.16352542  1.24911198 49.11745159
 
 Euler angles ALPHA=     0.0000000  BETA=     0.0000000

 transformation matrix from SAXIS to cartesian coordinates
 ---------------------------------------------------------
     1.0000000 m_x     0.0000000 m_y     0.0000000 m_z
     0.0000000 m_x     1.0000000 m_y     0.0000000 m_z
     0.0000000 m_x     0.0000000 m_y     1.0000000 m_z

 transformation matrix from cartesian coordinates to SAXIS
 ---------------------------------------------------------
     1.0000000 m_x     0.0000000 m_y     0.0000000 m_z
     0.0000000 m_x     1.0000000 m_y     0.0000000 m_z
     0.0000000 m_x     0.0000000 m_y     1.0000000 m_z




--------------------------------------------------------------------------------------------------------


 k-point  1 :   0.5000 0.0000 0.0000  plane waves:   29328
 k-point  2 :   0.4949 0.0000 0.0000  plane waves:   29328
 k-point  3 :   0.4899 0.0000 0.0000  plane waves:   29336
 k-point  4 :   0.4848 0.0000 0.0000  plane waves:   29308
 k-point  5 :   0.4798 0.0000 0.0000  plane waves:   29312
 k-point  6 :   0.4747 0.0000 0.0000  plane waves:   29324
 k-point  7 :   0.4697 0.0000 0.0000  plane waves:   29312
 k-point  8 :   0.4646 0.0000 0.0000  plane waves:   29304
 k-point  9 :   0.4596 0.0000 0.0000  plane waves:   29284
 k-point 10 :   0.4545 0.0000 0.0000  plane waves:   29276
 k-point 11 :   0.4495 0.0000 0.0000  plane waves:   29228
 k-point 12 :   0.4444 0.0000 0.0000  plane waves:   29248
 k-point 13 :   0.4394 0.0000 0.0000  plane waves:   29256
 k-point 14 :   0.4343 0.0000 0.0000  plane waves:   29260
 k-point 15 :   0.4293 0.0000 0.0000  plane waves:   29248
 k-point 16 :   0.4242 0.0000 0.0000  plane waves:   29248
 k-point 17 :   0.4192 0.0000 0.0000  plane waves:   29252
 k-point 18 :   0.4141 0.0000 0.0000  plane waves:   29276
 k-point 19 :   0.4091 0.0000 0.0000  plane waves:   29296
 k-point 20 :   0.4040 0.0000 0.0000  plane waves:   29280
 k-point 21 :   0.3990 0.0000 0.0000  plane waves:   29288
 k-point 22 :   0.3939 0.0000 0.0000  plane waves:   29284
 k-point 23 :   0.3889 0.0000 0.0000  plane waves:   29276
 k-point 24 :   0.3838 0.0000 0.0000  plane waves:   29248
 k-point 25 :   0.3788 0.0000 0.0000  plane waves:   29228
 k-point 26 :   0.3737 0.0000 0.0000  plane waves:   29244
 k-point 27 :   0.3687 0.0000 0.0000  plane waves:   29260
 k-point 28 :   0.3636 0.0000 0.0000  plane waves:   29244
 k-point 29 :   0.3586 0.0000 0.0000  plane waves:   29248
 k-point 30 :   0.3535 0.0000 0.0000  plane waves:   29232
 k-point 31 :   0.3485 0.0000 0.0000  plane waves:   29240
 k-point 32 :   0.3434 0.0000 0.0000  plane waves:   29232
 k-point 33 :   0.3384 0.0000 0.0000  plane waves:   29244
 k-point 34 :   0.3333 0.0000 0.0000  plane waves:   29232
 k-point 35 :   0.3283 0.0000 0.0000  plane waves:   29240
 k-point 36 :   0.3232 0.0000 0.0000  plane waves:   29228
 k-point 37 :   0.3182 0.0000 0.0000  plane waves:   29220
 k-point 38 :   0.3131 0.0000 0.0000  plane waves:   29228
 k-point 39 :   0.3081 0.0000 0.0000  plane waves:   29232
 k-point 40 :   0.3030 0.0000 0.0000  plane waves:   29248
 k-point 41 :   0.2980 0.0000 0.0000  plane waves:   29212
 k-point 42 :   0.2929 0.0000 0.0000  plane waves:   29224
 k-point 43 :   0.2879 0.0000 0.0000  plane waves:   29216
 k-point 44 :   0.2828 0.0000 0.0000  plane waves:   29224
 k-point 45 :   0.2778 0.0000 0.0000  plane waves:   29192
 k-point 46 :   0.2727 0.0000 0.0000  plane waves:   29176
 k-point 47 :   0.2677 0.0000 0.0000  plane waves:   29192
 k-point 48 :   0.2626 0.0000 0.0000  plane waves:   29184
 k-point 49 :   0.2576 0.0000 0.0000  plane waves:   29176
 k-point 50 :   0.2525 0.0000 0.0000  plane waves:   29160
 k-point 51 :   0.2475 0.0000 0.0000  plane waves:   29128
 k-point 52 :   0.2424 0.0000 0.0000  plane waves:   29136
 k-point 53 :   0.2374 0.0000 0.0000  plane waves:   29148
 k-point 54 :   0.2323 0.0000 0.0000  plane waves:   29148
 k-point 55 :   0.2273 0.0000 0.0000  plane waves:   29164
 k-point 56 :   0.2222 0.0000 0.0000  plane waves:   29136
 k-point 57 :   0.2172 0.0000 0.0000  plane waves:   29120
 k-point 58 :   0.2121 0.0000 0.0000  plane waves:   29112
 k-point 59 :   0.2071 0.0000 0.0000  plane waves:   29120
 k-point 60 :   0.2020 0.0000 0.0000  plane waves:   29124
 k-point 61 :   0.1970 0.0000 0.0000  plane waves:   29108
 k-point 62 :   0.1919 0.0000 0.0000  plane waves:   29132
 k-point 63 :   0.1869 0.0000 0.0000  plane waves:   29100
 k-point 64 :   0.1818 0.0000 0.0000  plane waves:   29120
 k-point 65 :   0.1768 0.0000 0.0000  plane waves:   29100
 k-point 66 :   0.1717 0.0000 0.0000  plane waves:   29084
 k-point 67 :   0.1667 0.0000 0.0000  plane waves:   29084
 k-point 68 :   0.1616 0.0000 0.0000  plane waves:   29060
 k-point 69 :   0.1566 0.0000 0.0000  plane waves:   29052
 k-point 70 :   0.1515 0.0000 0.0000  plane waves:   29044
 k-point 71 :   0.1465 0.0000 0.0000  plane waves:   29036
 k-point 72 :   0.1414 0.0000 0.0000  plane waves:   29020
 k-point 73 :   0.1364 0.0000 0.0000  plane waves:   29012
 k-point 74 :   0.1313 0.0000 0.0000  plane waves:   28992
 k-point 75 :   0.1263 0.0000 0.0000  plane waves:   29012
 k-point 76 :   0.1212 0.0000 0.0000  plane waves:   29020
 k-point 77 :   0.1162 0.0000 0.0000  plane waves:   28992
 k-point 78 :   0.1111 0.0000 0.0000  plane waves:   28980
 k-point 79 :   0.1061 0.0000 0.0000  plane waves:   29026
 k-point 80 :   0.1010 0.0000 0.0000  plane waves:   29030
 k-point 81 :   0.0960 0.0000 0.0000  plane waves:   29014
 k-point 82 :   0.0909 0.0000 0.0000  plane waves:   28986
 k-point 83 :   0.0859 0.0000 0.0000  plane waves:   28990
 k-point 84 :   0.0808 0.0000 0.0000  plane waves:   29002
 k-point 85 :   0.0758 0.0000 0.0000  plane waves:   28990
 k-point 86 :   0.0707 0.0000 0.0000  plane waves:   28986
 k-point 87 :   0.0657 0.0000 0.0000  plane waves:   28994
 k-point 88 :   0.0606 0.0000 0.0000  plane waves:   28990
 k-point 89 :   0.0556 0.0000 0.0000  plane waves:   28994
 k-point 90 :   0.0505 0.0000 0.0000  plane waves:   28998
 k-point 91 :   0.0455 0.0000 0.0000  plane waves:   28990
 k-point 92 :   0.0404 0.0000 0.0000  plane waves:   28974
 k-point 93 :   0.0354 0.0000 0.0000  plane waves:   28998
 k-point 94 :   0.0303 0.0000 0.0000  plane waves:   29026
 k-point 95 :   0.0253 0.0000 0.0000  plane waves:   29042
 k-point 96 :   0.0202 0.0000 0.0000  plane waves:   28998
 k-point 97 :   0.0152 0.0000 0.0000  plane waves:   29014
 k-point 98 :   0.0101 0.0000 0.0000  plane waves:   29030
 k-point 99 :   0.0051 0.0000 0.0000  plane waves:   29046
 k-point ** :   0.0000 0.0000 0.0000  plane waves:   29014
 k-point ** :   0.0000 0.0000 0.0000  plane waves:   29014
 k-point ** :   0.0051 0.0051 0.0000  plane waves:   29038
 k-point ** :   0.0101 0.0101 0.0000  plane waves:   29022
 k-point ** :   0.0152 0.0152 0.0000  plane waves:   29018
 k-point ** :   0.0202 0.0202 0.0000  plane waves:   29030
 k-point ** :   0.0253 0.0253 0.0000  plane waves:   29006
 k-point ** :   0.0303 0.0303 0.0000  plane waves:   28986
 k-point ** :   0.0354 0.0354 0.0000  plane waves:   28946
 k-point ** :   0.0404 0.0404 0.0000  plane waves:   28986
 k-point ** :   0.0455 0.0455 0.0000  plane waves:   28994
 k-point ** :   0.0505 0.0505 0.0000  plane waves:   28978
 k-point ** :   0.0556 0.0556 0.0000  plane waves:   29014
 k-point ** :   0.0606 0.0606 0.0000  plane waves:   29014
 k-point ** :   0.0657 0.0657 0.0000  plane waves:   29014
 k-point ** :   0.0707 0.0707 0.0000  plane waves:   28998
 k-point ** :   0.0758 0.0758 0.0000  plane waves:   28986
 k-point ** :   0.0808 0.0808 0.0000  plane waves:   28998
 k-point ** :   0.0859 0.0859 0.0000  plane waves:   28994
 k-point ** :   0.0909 0.0909 0.0000  plane waves:   29014
 k-point ** :   0.0960 0.0960 0.0000  plane waves:   29050
 k-point ** :   0.1010 0.1010 0.0000  plane waves:   29078
 k-point ** :   0.1061 0.1061 0.0000  plane waves:   29098
 k-point ** :   0.1111 0.1111 0.0000  plane waves:   29114
 k-point ** :   0.1162 0.1162 0.0000  plane waves:   29138
 k-point ** :   0.1212 0.1212 0.0000  plane waves:   29146
 k-point ** :   0.1263 0.1263 0.0000  plane waves:   29154
 k-point ** :   0.1313 0.1313 0.0000  plane waves:   29190
 k-point ** :   0.1364 0.1364 0.0000  plane waves:   29198
 k-point ** :   0.1414 0.1414 0.0000  plane waves:   29210
 k-point ** :   0.1465 0.1465 0.0000  plane waves:   29242
 k-point ** :   0.1515 0.1515 0.0000  plane waves:   29234
 k-point ** :   0.1566 0.1566 0.0000  plane waves:   29278
 k-point ** :   0.1616 0.1616 0.0000  plane waves:   29298
 k-point ** :   0.1667 0.1667 0.0000  plane waves:   29290
 k-point ** :   0.1717 0.1717 0.0000  plane waves:   29282
 k-point ** :   0.1768 0.1768 0.0000  plane waves:   29290
 k-point ** :   0.1818 0.1818 0.0000  plane waves:   29278
 k-point ** :   0.1869 0.1869 0.0000  plane waves:   29310
 k-point ** :   0.1919 0.1919 0.0000  plane waves:   29306
 k-point ** :   0.1970 0.1970 0.0000  plane waves:   29306
 k-point ** :   0.2020 0.2020 0.0000  plane waves:   29326
 k-point ** :   0.2071 0.2071 0.0000  plane waves:   29350
 k-point ** :   0.2121 0.2121 0.0000  plane waves:   29326
 k-point ** :   0.2172 0.2172 0.0000  plane waves:   29342
 k-point ** :   0.2222 0.2222 0.0000  plane waves:   29322
 k-point ** :   0.2273 0.2273 0.0000  plane waves:   29318
 k-point ** :   0.2323 0.2323 0.0000  plane waves:   29318
 k-point ** :   0.2374 0.2374 0.0000  plane waves:   29326
 k-point ** :   0.2424 0.2424 0.0000  plane waves:   29322
 k-point ** :   0.2475 0.2475 0.0000  plane waves:   29338
 k-point ** :   0.2525 0.2525 0.0000  plane waves:   29330
 k-point ** :   0.2576 0.2576 0.0000  plane waves:   29338
 k-point ** :   0.2626 0.2626 0.0000  plane waves:   29330
 k-point ** :   0.2677 0.2677 0.0000  plane waves:   29338
 k-point ** :   0.2727 0.2727 0.0000  plane waves:   29310
 k-point ** :   0.2778 0.2778 0.0000  plane waves:   29298
 k-point ** :   0.2828 0.2828 0.0000  plane waves:   29318
 k-point ** :   0.2879 0.2879 0.0000  plane waves:   29318
 k-point ** :   0.2929 0.2929 0.0000  plane waves:   29342
 k-point ** :   0.2980 0.2980 0.0000  plane waves:   29350
 k-point ** :   0.3030 0.3030 0.0000  plane waves:   29326
 k-point ** :   0.3081 0.3081 0.0000  plane waves:   29362
 k-point ** :   0.3131 0.3131 0.0000  plane waves:   29334
 k-point ** :   0.3182 0.3182 0.0000  plane waves:   29342
 k-point ** :   0.3232 0.3232 0.0000  plane waves:   29338
 k-point ** :   0.3283 0.3283 0.0000  plane waves:   29310
 k-point ** :   0.3333 0.3333 0.0000  plane waves:   29310
 k-point ** :   0.3384 0.3384 0.0000  plane waves:   29330
 k-point ** :   0.3434 0.3434 0.0000  plane waves:   29358
 k-point ** :   0.3485 0.3485 0.0000  plane waves:   29374
 k-point ** :   0.3535 0.3535 0.0000  plane waves:   29374
 k-point ** :   0.3586 0.3586 0.0000  plane waves:   29394
 k-point ** :   0.3636 0.3636 0.0000  plane waves:   29410
 k-point ** :   0.3687 0.3687 0.0000  plane waves:   29418
 k-point ** :   0.3737 0.3737 0.0000  plane waves:   29390
 k-point ** :   0.3788 0.3788 0.0000  plane waves:   29406
 k-point ** :   0.3838 0.3838 0.0000  plane waves:   29378
 k-point ** :   0.3889 0.3889 0.0000  plane waves:   29382
 k-point ** :   0.3939 0.3939 0.0000  plane waves:   29322
 k-point ** :   0.3990 0.3990 0.0000  plane waves:   29342
 k-point ** :   0.4040 0.4040 0.0000  plane waves:   29350
 k-point ** :   0.4091 0.4091 0.0000  plane waves:   29346
 k-point ** :   0.4141 0.4141 0.0000  plane waves:   29358
 k-point ** :   0.4192 0.4192 0.0000  plane waves:   29334
 k-point ** :   0.4242 0.4242 0.0000  plane waves:   29342
 k-point ** :   0.4293 0.4293 0.0000  plane waves:   29358
 k-point ** :   0.4343 0.4343 0.0000  plane waves:   29342
 k-point ** :   0.4394 0.4394 0.0000  plane waves:   29326
 k-point ** :   0.4444 0.4444 0.0000  plane waves:   29306
 k-point ** :   0.4495 0.4495 0.0000  plane waves:   29314
 k-point ** :   0.4545 0.4545 0.0000  plane waves:   29306
 k-point ** :   0.4596 0.4596 0.0000  plane waves:   29322
 k-point ** :   0.4646 0.4646 0.0000  plane waves:   29342
 k-point ** :   0.4697 0.4697 0.0000  plane waves:   29306
 k-point ** :   0.4747 0.4747 0.0000  plane waves:   29316
 k-point ** :   0.4798 0.4798 0.0000  plane waves:   29312
 k-point ** :   0.4848 0.4848 0.0000  plane waves:   29308
 k-point ** :   0.4899 0.4899 0.0000  plane waves:   29320
 k-point ** :   0.4949 0.4949 0.0000  plane waves:   29336
 k-point ** :   0.5000 0.5000 0.0000  plane waves:   29328

 maximum and minimum number of plane-waves per node :      3708     3566

 maximum number of plane-waves:     29418
 maximum index in each direction: 
   IXMAX=    7   IYMAX=    7   IZMAX=   80
   IXMIN=   -7   IYMIN=   -7   IZMIN=  -80

 WARNING: aliasing errors must be expected set NGX to  30 to avoid them
 WARNING: aliasing errors must be expected set NGY to  30 to avoid them
 WARNING: aliasing errors must be expected set NGZ to 322 to avoid them
 aliasing errors are usually negligible using standard VASP settings
 and one can safely disregard these warnings

 real space projection operators:
  total allocation   :       4469.27 KBytes
  max/ min on nodes  :        578.34        543.37


 parallel 3D FFT for wavefunctions:
    minimum data exchange during FFTs selected (reduces bandwidth)
 parallel 3D FFT for charge:
    minimum data exchange during FFTs selected (reduces bandwidth)


 total amount of memory used by VASP on root node   448931. kBytes
========================================================================

   base      :      30000. kBytes
   nonlr-proj:       1876. kBytes
   fftplans  :       3621. kBytes
   grid      :      14592. kBytes
   one-center:         97. kBytes
   wavefun   :     398745. kBytes
 
     INWAV:  cpu time    0.00: real time    0.00
 initial charge density was supplied:
 number of electron     107.9999953 magnetization       0.0000000      0.0000000      0.0000000
 keeping initial charge density in first step


--------------------------------------------------------------------------------------------------------


 Maximum index for non-local projection operator          426
 Maximum index for augmentation-charges          834 (set IRDMAX)


--------------------------------------------------------------------------------------------------------


 First call to EWALD:  gamma=   0.191
 Maximum number of real-space cells 6x 6x 1
 Maximum number of reciprocal cells 2x 2x13

 FEWALD executed in parallel
    FEWALD:  cpu time    0.01: real time    0.01


----------------------------------------- Iteration    1(   1)  ---------------------------------------


    POTLOK:  cpu time    0.51: real time    0.52
    SETDIJ:  cpu time    0.05: real time    0.05
     EDDAV:  cpu time  384.84: real time  386.58
       DOS:  cpu time    0.07: real time    0.07
    --------------------------------------------
      LOOP:  cpu time  385.46: real time  387.22

 eigenvalue-minimisations  : 53688
 total energy-change (2. order) : 0.6075802E+03  (-0.3319555E+04)
 number of electron     107.9999953 magnetization       0.0000000      0.0000000      0.0000000
 augmentation part      107.9999953 magnetization       0.0000000      0.0000000      0.0000000

 Free energy of the ion-electron system (eV)
  ---------------------------------------------------
  alpha Z        PSCENC =        31.41619652
  Ewald energy   TEWEN  =      9620.81858098
  -Hartree energ DENC   =    -13376.56823474
  -exchange      EXHF   =         0.00000000
  -V(xc)+E(xc)   XCENC  =      -830.16770687
  PAW double counting   =      7974.60004014    -6931.51018487
  entropy T*S    EENTRO =         0.00074370
  eigenvalues    EBANDS =       321.90944136
  atomic energy  EATOM  =      3797.08136462
  ---------------------------------------------------
  free energy    TOTEN  =       607.58024084 eV

  energy without entropy =      607.57949715  energy(sigma->0) =      607.57999294


--------------------------------------------------------------------------------------------------------




----------------------------------------- Iteration    1(   2)  ---------------------------------------


     EDDAV:  cpu time  486.90: real time  489.72
       DOS:  cpu time    0.07: real time    0.07
    --------------------------------------------
      LOOP:  cpu time  486.98: real time  489.80

 eigenvalue-minimisations  : 68776
 total energy-change (2. order) :-0.6193421E+03  (-0.5931174E+03)
 number of electron     107.9999953 magnetization       0.0000000      0.0000000      0.0000000
 augmentation part      107.9999953 magnetization       0.0000000      0.0000000      0.0000000

 Free energy of the ion-electron system (eV)
  ---------------------------------------------------
  alpha Z        PSCENC =        31.41619652
  Ewald energy   TEWEN  =      9620.81858098
  -Hartree energ DENC   =    -13376.56823474
  -exchange      EXHF   =         0.00000000
  -V(xc)+E(xc)   XCENC  =      -830.16770687
  PAW double counting   =      7974.60004014    -6931.51018487
  entropy T*S    EENTRO =        -0.00044459
  eigenvalues    EBANDS =      -297.43145105
  atomic energy  EATOM  =      3797.08136462
  ---------------------------------------------------
  free energy    TOTEN  =       -11.76183986 eV

  energy without entropy =      -11.76139527  energy(sigma->0) =      -11.76169167


--------------------------------------------------------------------------------------------------------




----------------------------------------- Iteration    1(   3)  ---------------------------------------


     EDDAV:  cpu time  484.18: real time  486.45
       DOS:  cpu time    0.06: real time    0.07
    --------------------------------------------
      LOOP:  cpu time  484.25: real time  486.53

 eigenvalue-minimisations  : 65996
 total energy-change (2. order) :-0.8570372E+02  (-0.8283460E+02)
 number of electron     107.9999953 magnetization       0.0000000      0.0000000      0.0000000
 augmentation part      107.9999953 magnetization       0.0000000      0.0000000      0.0000000

 Free energy of the ion-electron system (eV)
  ---------------------------------------------------
  alpha Z        PSCENC =        31.41619652
  Ewald energy   TEWEN  =      9620.81858098
  -Hartree energ DENC   =    -13376.56823474
  -exchange      EXHF   =         0.00000000
  -V(xc)+E(xc)   XCENC  =      -830.16770687
  PAW double counting   =      7974.60004014    -6931.51018487
  entropy T*S    EENTRO =         0.00044155
  eigenvalues    EBANDS =      -383.13605391
  atomic energy  EATOM  =      3797.08136462
  ---------------------------------------------------
  free energy    TOTEN  =       -97.46555658 eV

  energy without entropy =      -97.46599813  energy(sigma->0) =      -97.46570376


--------------------------------------------------------------------------------------------------------




----------------------------------------- Iteration    1(   4)  ---------------------------------------


     EDDAV:  cpu time  570.81: real time  573.43
       DOS:  cpu time    0.07: real time    0.07
    --------------------------------------------
      LOOP:  cpu time  570.89: real time  573.51

 eigenvalue-minimisations  : 76172
 total energy-change (2. order) :-0.5737649E+01  (-0.5621324E+01)
 number of electron     107.9999953 magnetization       0.0000000      0.0000000      0.0000000
 augmentation part      107.9999953 magnetization       0.0000000      0.0000000      0.0000000

 Free energy of the ion-electron system (eV)
  ---------------------------------------------------
  alpha Z        PSCENC =        31.41619652
  Ewald energy   TEWEN  =      9620.81858098
  -Hartree energ DENC   =    -13376.56823474
  -exchange      EXHF   =         0.00000000
  -V(xc)+E(xc)   XCENC  =      -830.16770687
  PAW double counting   =      7974.60004014    -6931.51018487
  entropy T*S    EENTRO =         0.00292142
  eigenvalues    EBANDS =      -388.87618229
  atomic energy  EATOM  =      3797.08136462
  ---------------------------------------------------
  free energy    TOTEN  =      -103.20320509 eV

  energy without entropy =     -103.20612651  energy(sigma->0) =     -103.20417889


--------------------------------------------------------------------------------------------------------




----------------------------------------- Iteration    1(   5)  ---------------------------------------


     EDDAV:  cpu time  605.92: real time  608.12
       DOS:  cpu time    0.07: real time    0.07
 


 total charge     
 
# of ion     s       p       d       tot
----------------------------------------
  1        0.860   1.750   0.000   2.610
  2        0.860   1.751   0.000   2.610
  3        0.860   1.751   0.000   2.610
  4        0.860   1.751   0.000   2.611
  5        0.860   1.750   0.000   2.610
  6        0.860   1.751   0.000   2.611
  7        1.391   1.993   0.019   3.402
  8        1.382   2.022   0.019   3.424
  9        1.400   1.965   0.020   3.385
 10        1.400   1.966   0.020   3.386
 11        1.383   2.020   0.019   3.423
 12        1.399   1.968   0.020   3.387
 13        1.398   1.968   0.020   3.386
 14        1.381   2.020   0.019   3.420
 15        1.392   1.988   0.019   3.398
 16        1.813   1.609   0.128   3.550
 17        1.808   1.619   0.125   3.552
 18        1.808   1.615   0.124   3.547
 19        1.808   1.616   0.125   3.549
 20        1.809   1.611   0.125   3.546
 21        1.813   1.605   0.127   3.544
------------------------------------------------
tot       28.544  38.090   0.928  67.562
 


 magnetization (x)
 
# of ion     s       p       d       tot
----------------------------------------
  1        0.000   0.000   0.000   0.000
  2        0.000   0.000   0.000   0.000
  3        0.000   0.000   0.000   0.000
  4        0.000   0.000   0.000   0.000
  5        0.000   0.000   0.000   0.000
  6        0.000   0.000   0.000   0.000
  7       -0.001   0.005   0.000   0.004
  8        0.000   0.001   0.000   0.001
  9        0.001  -0.006   0.000  -0.005
 10       -0.001   0.006   0.000   0.005
 11        0.000   0.000   0.000   0.000
 12        0.001  -0.007   0.000  -0.006
 13       -0.001   0.005   0.000   0.004
 14        0.000  -0.001   0.000  -0.001
 15        0.001  -0.005   0.000  -0.004
 16        0.001  -0.001   0.000   0.000
 17       -0.001   0.004   0.000   0.003
 18        0.001  -0.003   0.000  -0.002
 19       -0.001   0.003   0.000   0.001
 20        0.001  -0.004   0.000  -0.002
 21       -0.001   0.001   0.000   0.000
------------------------------------------------
tot        0.000   0.000   0.000   0.000
 


 magnetization (y)
 
# of ion     s       p       d       tot
----------------------------------------
  1        0.000   0.000   0.000   0.000
  2        0.000   0.000   0.000   0.000
  3        0.000   0.000   0.000   0.000
  4        0.000   0.000   0.000   0.000
  5        0.000   0.000   0.000   0.000
  6        0.000   0.000   0.000   0.000
  7       -0.003   0.013   0.000   0.011
  8        0.001   0.003   0.000   0.004
  9        0.004  -0.016   0.000  -0.013
 10       -0.004   0.017   0.000   0.014
 11        0.000   0.000   0.000  -0.001
 12        0.004  -0.018   0.000  -0.015
 13       -0.004   0.014   0.000   0.010
 14       -0.001  -0.003   0.000  -0.004
 15        0.002  -0.012   0.000  -0.010
 16        0.003  -0.005   0.001   0.000
 17       -0.004   0.012  -0.001   0.008
 18        0.004  -0.010   0.001  -0.006
 19       -0.004   0.010  -0.001   0.005
 20        0.004  -0.011   0.001  -0.007
 21       -0.003   0.005  -0.001   0.000
------------------------------------------------
tot        0.000  -0.002   0.000  -0.003
 


 magnetization (z)
 
# of ion     s       p       d       tot
----------------------------------------
  1        0.000   0.000   0.000   0.000
  2        0.000   0.000   0.000   0.000
  3        0.000   0.000   0.000   0.000
  4        0.000   0.000   0.000   0.000
  5        0.000   0.000   0.000   0.000
  6        0.000   0.000   0.000   0.000
  7       -0.001   0.001   0.000   0.000
  8        0.000   0.001   0.000   0.001
  9        0.001   0.000   0.000   0.001
 10       -0.001   0.001   0.000   0.000
 11        0.000   0.000   0.000   0.000
 12        0.001  -0.001   0.000   0.000
 13       -0.001   0.000   0.000  -0.001
 14        0.000  -0.001   0.000  -0.001
 15        0.001   0.000   0.000   0.000
 16        0.001  -0.003   0.000  -0.002
 17        0.000   0.006   0.000   0.005
 18        0.000  -0.005   0.000  -0.004
 19       -0.001   0.005   0.000   0.004
 20        0.000  -0.005   0.000  -0.004
 21       -0.001   0.003   0.000   0.002
------------------------------------------------
tot        0.000   0.000   0.000   0.000
 
    --------------------------------------------
      LOOP:  cpu time  606.16: real time  608.37

 eigenvalue-minimisations  : 79724
 total energy-change (2. order) :-0.2222717E+00  (-0.2160742E+00)
 number of electron     107.9999953 magnetization       0.0000000      0.0000000      0.0000000
 augmentation part      107.9999953 magnetization       0.0000000      0.0000000      0.0000000

 Free energy of the ion-electron system (eV)
  ---------------------------------------------------
  alpha Z        PSCENC =        31.41619652
  Ewald energy   TEWEN  =      9620.81858098
  -Hartree energ DENC   =    -13376.56823474
  -exchange      EXHF   =         0.00000000
  -V(xc)+E(xc)   XCENC  =      -830.16770687
  PAW double counting   =      7974.60004014    -6931.51018487
  entropy T*S    EENTRO =         0.00298165
  eigenvalues    EBANDS =      -389.09851427
  atomic energy  EATOM  =      3797.08136462
  ---------------------------------------------------
  free energy    TOTEN  =      -103.42547683 eV

  energy without entropy =     -103.42845849  energy(sigma->0) =     -103.42647072


--------------------------------------------------------------------------------------------------------




----------------------------------------- Iteration    1(   6)  ---------------------------------------


    EDDIAG:  cpu time   80.12: real time   80.51
  RMM-DIIS:  cpu time  252.88: real time  254.40
    ORTHCH:  cpu time   14.48: real time   14.53
       DOS:  cpu time    0.07: real time    0.07
    --------------------------------------------
      LOOP:  cpu time  347.56: real time  349.52

 eigenvalue-minimisations  : 56980
 total energy-change (2. order) :-0.7303038E-02  (-0.7292676E-02)
 number of electron     107.9999953 magnetization       0.0000000      0.0000000      0.0000000
 augmentation part      107.9999953 magnetization       0.0000000      0.0000000      0.0000000

 Free energy of the ion-electron system (eV)
  ---------------------------------------------------
  alpha Z        PSCENC =        31.41619652
  Ewald energy   TEWEN  =      9620.81858098
  -Hartree energ DENC   =    -13376.56823474
  -exchange      EXHF   =         0.00000000
  -V(xc)+E(xc)   XCENC  =      -830.16770687
  PAW double counting   =      7974.60004014    -6931.51018487
  entropy T*S    EENTRO =         0.00292919
  eigenvalues    EBANDS =      -389.10576484
  atomic energy  EATOM  =      3797.08136462
  ---------------------------------------------------
  free energy    TOTEN  =      -103.43277987 eV

  energy without entropy =     -103.43570906  energy(sigma->0) =     -103.43375626


--------------------------------------------------------------------------------------------------------




----------------------------------------- Iteration    1(   7)  ---------------------------------------


    EDDIAG:  cpu time   80.94: real time   81.37
  RMM-DIIS:  cpu time  367.60: real time  369.77
    ORTHCH:  cpu time   14.22: real time   14.27
       DOS:  cpu time    0.07: real time    0.07
    --------------------------------------------
      LOOP:  cpu time  462.83: real time  465.48

 eigenvalue-minimisations  : 82944
 total energy-change (2. order) :-0.2617309E-02  (-0.2536469E-02)
 number of electron     107.9999953 magnetization       0.0000000      0.0000000      0.0000000
 augmentation part      107.9999953 magnetization       0.0000000      0.0000000      0.0000000

 Free energy of the ion-electron system (eV)
  ---------------------------------------------------
  alpha Z        PSCENC =        31.41619652
  Ewald energy   TEWEN  =      9620.81858098
  -Hartree energ DENC   =    -13376.56823474
  -exchange      EXHF   =         0.00000000
  -V(xc)+E(xc)   XCENC  =      -830.16770687
  PAW double counting   =      7974.60004014    -6931.51018487
  entropy T*S    EENTRO =         0.00285613
  eigenvalues    EBANDS =      -389.10830909
  atomic energy  EATOM  =      3797.08136462
  ---------------------------------------------------
  free energy    TOTEN  =      -103.43539718 eV

  energy without entropy =     -103.43825331  energy(sigma->0) =     -103.43634922


--------------------------------------------------------------------------------------------------------




----------------------------------------- Iteration    1(   8)  ---------------------------------------


    EDDIAG:  cpu time   77.32: real time   77.70
  RMM-DIIS:  cpu time  359.42: real time  361.58
    ORTHCH:  cpu time   14.48: real time   14.56
       DOS:  cpu time    0.07: real time    0.07
    --------------------------------------------
      LOOP:  cpu time  451.30: real time  453.92

 eigenvalue-minimisations  : 75275
 total energy-change (2. order) :-0.3599136E-03  (-0.4004167E-03)
 number of electron     107.9999953 magnetization       0.0000000      0.0000000      0.0000000
 augmentation part      107.9999953 magnetization       0.0000000      0.0000000      0.0000000

 Free energy of the ion-electron system (eV)
  ---------------------------------------------------
  alpha Z        PSCENC =        31.41619652
  Ewald energy   TEWEN  =      9620.81858098
  -Hartree energ DENC   =    -13376.56823474
  -exchange      EXHF   =         0.00000000
  -V(xc)+E(xc)   XCENC  =      -830.16770687
  PAW double counting   =      7974.60004014    -6931.51018487
  entropy T*S    EENTRO =         0.00284100
  eigenvalues    EBANDS =      -389.10865387
  atomic energy  EATOM  =      3797.08136462
  ---------------------------------------------------
  free energy    TOTEN  =      -103.43575709 eV

  energy without entropy =     -103.43859809  energy(sigma->0) =     -103.43670409


--------------------------------------------------------------------------------------------------------




----------------------------------------- Iteration    1(   9)  ---------------------------------------


    EDDIAG:  cpu time   78.66: real time   79.06
  RMM-DIIS:  cpu time  346.02: real time  347.99
    ORTHCH:  cpu time   14.76: real time   14.81
       DOS:  cpu time    0.06: real time    0.06
    --------------------------------------------
      LOOP:  cpu time  439.50: real time  441.93

 eigenvalue-minimisations  : 72038
 total energy-change (2. order) :-0.3562988E-04  (-0.4481416E-04)
 number of electron     107.9999953 magnetization       0.0000000      0.0000000      0.0000000
 augmentation part      107.9999953 magnetization       0.0000000      0.0000000      0.0000000

 Free energy of the ion-electron system (eV)
  ---------------------------------------------------
  alpha Z        PSCENC =        31.41619652
  Ewald energy   TEWEN  =      9620.81858098
  -Hartree energ DENC   =    -13376.56823474
  -exchange      EXHF   =         0.00000000
  -V(xc)+E(xc)   XCENC  =      -830.16770687
  PAW double counting   =      7974.60004014    -6931.51018487
  entropy T*S    EENTRO =         0.00283939
  eigenvalues    EBANDS =      -389.10868790
  atomic energy  EATOM  =      3797.08136462
  ---------------------------------------------------
  free energy    TOTEN  =      -103.43579272 eV

  energy without entropy =     -103.43863211  energy(sigma->0) =     -103.43673919


--------------------------------------------------------------------------------------------------------




----------------------------------------- Iteration    1(  10)  ---------------------------------------


    EDDIAG:  cpu time   79.26: real time   79.64
  RMM-DIIS:  cpu time  274.00: real time  275.47
    ORTHCH:  cpu time   14.70: real time   14.76
       DOS:  cpu time    0.07: real time    0.07
 


 total charge     
 
# of ion     s       p       d       tot
----------------------------------------
  1        0.859   1.751   0.000   2.611
  2        0.859   1.751   0.000   2.611
  3        0.859   1.751   0.000   2.611
  4        0.859   1.752   0.000   2.611
  5        0.859   1.751   0.000   2.611
  6        0.859   1.752   0.000   2.611
  7        1.391   1.992   0.019   3.402
  8        1.382   2.022   0.019   3.423
  9        1.400   1.965   0.020   3.385
 10        1.399   1.966   0.020   3.386
 11        1.383   2.020   0.019   3.422
 12        1.399   1.968   0.020   3.387
 13        1.398   1.967   0.020   3.385
 14        1.381   2.020   0.019   3.420
 15        1.391   1.988   0.019   3.398
 16        1.808   1.609   0.127   3.544
 17        1.803   1.618   0.125   3.546
 18        1.802   1.615   0.124   3.542
 19        1.803   1.616   0.125   3.543
 20        1.804   1.611   0.125   3.540
 21        1.807   1.605   0.127   3.539
------------------------------------------------
tot       28.505  38.094   0.927  67.527
 


 magnetization (x)
 
# of ion     s       p       d       tot
----------------------------------------
  1        0.000   0.000   0.000   0.000
  2        0.000   0.000   0.000   0.000
  3        0.000   0.000   0.000   0.000
  4        0.000   0.000   0.000   0.000
  5        0.000   0.000   0.000   0.000
  6        0.000   0.000   0.000   0.000
  7       -0.001   0.005   0.000   0.004
  8        0.000   0.001   0.000   0.001
  9        0.001  -0.006   0.000  -0.005
 10       -0.001   0.006   0.000   0.005
 11        0.000   0.000   0.000   0.000
 12        0.001  -0.007   0.000  -0.006
 13       -0.001   0.005   0.000   0.004
 14        0.000  -0.001   0.000  -0.001
 15        0.001  -0.005   0.000  -0.004
 16        0.001  -0.001   0.000   0.000
 17       -0.001   0.004   0.000   0.002
 18        0.001  -0.003   0.000  -0.002
 19       -0.001   0.003   0.000   0.001
 20        0.001  -0.004   0.000  -0.002
 21       -0.001   0.001   0.000   0.000
------------------------------------------------
tot        0.000  -0.001   0.000  -0.001
 


 magnetization (y)
 
# of ion     s       p       d       tot
----------------------------------------
  1        0.000   0.000   0.000   0.000
  2        0.000   0.000   0.000   0.000
  3        0.000   0.000   0.000   0.000
  4        0.000   0.000   0.000   0.000
  5        0.000   0.000   0.000   0.000
  6        0.000   0.000   0.000   0.000
  7       -0.003   0.013   0.000   0.011
  8        0.001   0.003   0.000   0.004
  9        0.004  -0.016   0.000  -0.013
 10       -0.004   0.017   0.000   0.014
 11        0.000   0.000   0.000  -0.001
 12        0.004  -0.018   0.000  -0.015
 13       -0.004   0.014   0.000   0.010
 14       -0.001  -0.003   0.000  -0.004
 15        0.002  -0.012   0.000  -0.010
 16        0.003  -0.005   0.001   0.000
 17       -0.004   0.013  -0.001   0.008
 18        0.004  -0.010   0.001  -0.006
 19       -0.004   0.010  -0.001   0.005
 20        0.004  -0.011   0.001  -0.007
 21       -0.004   0.005  -0.001   0.000
------------------------------------------------
tot        0.000  -0.002   0.000  -0.003
 


 magnetization (z)
 
# of ion     s       p       d       tot
----------------------------------------
  1        0.000   0.000   0.000   0.000
  2        0.000   0.000   0.000   0.000
  3        0.000   0.000   0.000   0.000
  4        0.000   0.000   0.000   0.000
  5        0.000   0.000   0.000   0.000
  6        0.000   0.000   0.000   0.000
  7       -0.001   0.001   0.000   0.000
  8        0.000   0.001   0.000   0.001
  9        0.001   0.000   0.000   0.001
 10       -0.001   0.001   0.000   0.000
 11        0.000   0.000   0.000   0.000
 12        0.001  -0.001   0.000   0.000
 13       -0.001   0.000   0.000  -0.002
 14        0.000  -0.001   0.000  -0.001
 15        0.001   0.000   0.000   0.000
 16        0.001  -0.003   0.000  -0.002
 17        0.000   0.006   0.000   0.005
 18        0.000  -0.005   0.000  -0.004
 19       -0.001   0.005   0.000   0.004
 20        0.000  -0.005   0.000  -0.004
 21       -0.001   0.003   0.000   0.002
------------------------------------------------
tot        0.000   0.000   0.000   0.000
 
    --------------------------------------------
      LOOP:  cpu time  368.21: real time  370.11

 eigenvalue-minimisations  : 53389
 total energy-change (2. order) :-0.6081515E-05  (-0.8148456E-05)
 number of electron     107.9999953 magnetization       0.0000000      0.0000000      0.0000000
 augmentation part      107.9999953 magnetization       0.0000000      0.0000000      0.0000000

 Free energy of the ion-electron system (eV)
  ---------------------------------------------------
  alpha Z        PSCENC =        31.41619652
  Ewald energy   TEWEN  =      9620.81858098
  -Hartree energ DENC   =    -13376.56823474
  -exchange      EXHF   =         0.00000000
  -V(xc)+E(xc)   XCENC  =      -830.16770687
  PAW double counting   =      7974.60004014    -6931.51018487
  entropy T*S    EENTRO =         0.00283891
  eigenvalues    EBANDS =      -389.10869349
  atomic energy  EATOM  =      3797.08136462
  ---------------------------------------------------
  free energy    TOTEN  =      -103.43579880 eV

  energy without entropy =     -103.43863771  energy(sigma->0) =     -103.43674510


--------------------------------------------------------------------------------------------------------




----------------------------------------- Iteration    1(  11)  ---------------------------------------


    EDDIAG:  cpu time   77.39: real time   77.77
  RMM-DIIS:  cpu time  235.13: real time  236.38
    ORTHCH:  cpu time   14.54: real time   14.59
       DOS:  cpu time    0.07: real time    0.07
    --------------------------------------------
      LOOP:  cpu time  327.13: real time  328.81

 eigenvalue-minimisations  : 44604
 total energy-change (2. order) :-0.1141372E-05  (-0.1583829E-05)
 number of electron     107.9999953 magnetization       0.0000000      0.0000000      0.0000000
 augmentation part      107.9999953 magnetization       0.0000000      0.0000000      0.0000000

 Free energy of the ion-electron system (eV)
  ---------------------------------------------------
  alpha Z        PSCENC =        31.41619652
  Ewald energy   TEWEN  =      9620.81858098
  -Hartree energ DENC   =    -13376.56823474
  -exchange      EXHF   =         0.00000000
  -V(xc)+E(xc)   XCENC  =      -830.16770687
  PAW double counting   =      7974.60004014    -6931.51018487
  entropy T*S    EENTRO =         0.00283885
  eigenvalues    EBANDS =      -389.10869458
  atomic energy  EATOM  =      3797.08136462
  ---------------------------------------------------
  free energy    TOTEN  =      -103.43579994 eV

  energy without entropy =     -103.43863879  energy(sigma->0) =     -103.43674623


--------------------------------------------------------------------------------------------------------




----------------------------------------- Iteration    1(  12)  ---------------------------------------


    EDDIAG:  cpu time   78.58: real time   78.91
  RMM-DIIS:  cpu time  215.36: real time  216.31
    ORTHCH:  cpu time   14.49: real time   14.54
       DOS:  cpu time    0.06: real time    0.06
    --------------------------------------------
      LOOP:  cpu time  308.51: real time  309.83

 eigenvalue-minimisations  : 39149
 total energy-change (2. order) :-0.3403784E-06  (-0.4389932E-06)
 number of electron     107.9999953 magnetization       0.0000000      0.0000000      0.0000000
 augmentation part      107.9999953 magnetization       0.0000000      0.0000000      0.0000000

 Free energy of the ion-electron system (eV)
  ---------------------------------------------------
  alpha Z        PSCENC =        31.41619652
  Ewald energy   TEWEN  =      9620.81858098
  -Hartree energ DENC   =    -13376.56823474
[...]
    -0.0377605     0.0000000    -0.0377605
    -0.0362958    -0.0377605     0.0000000
 l=   2
     0.0000000    -0.0000019     0.0000000    -0.0000019     0.0000188
    -0.0000019     0.0000000     0.0000072     0.0000043    -0.0000019
     0.0000000     0.0000072     0.0000000     0.0000072     0.0000000
    -0.0000019     0.0000043     0.0000072     0.0000000    -0.0000019
     0.0000188    -0.0000019     0.0000000    -0.0000019     0.0000000
 l=   3
     0.0000000     0.0000000     0.0000000     0.0000000     0.0000000     0.0000000     0.0000000
     0.0000000     0.0000000     0.0000000     0.0000000     0.0000000     0.0000000     0.0000000
     0.0000000     0.0000000     0.0000000     0.0000000     0.0000000     0.0000000     0.0000000
     0.0000000     0.0000000     0.0000000     0.0000000     0.0000000     0.0000000     0.0000000
     0.0000000     0.0000000     0.0000000     0.0000000     0.0000000     0.0000000     0.0000000
     0.0000000     0.0000000     0.0000000     0.0000000     0.0000000     0.0000000     0.0000000
     0.0000000     0.0000000     0.0000000     0.0000000     0.0000000     0.0000000     0.0000000

 Ion:   11  E_soc:     -0.1982185
 l=   1
     0.0000000    -0.0328217    -0.0334963
    -0.0328217     0.0000000    -0.0328217
    -0.0334963    -0.0328217     0.0000000
 l=   2
     0.0000000    -0.0000026     0.0000000    -0.0000026     0.0000305
    -0.0000026     0.0000000     0.0000178    -0.0000253    -0.0000026
     0.0000000     0.0000178     0.0000000     0.0000178     0.0000000
    -0.0000026    -0.0000253     0.0000178     0.0000000    -0.0000026
     0.0000305    -0.0000026     0.0000000    -0.0000026     0.0000000
 l=   3
     0.0000000     0.0000000     0.0000000     0.0000000     0.0000000     0.0000000     0.0000000
     0.0000000     0.0000000     0.0000000     0.0000000     0.0000000     0.0000000     0.0000000
     0.0000000     0.0000000     0.0000000     0.0000000     0.0000000     0.0000000     0.0000000
     0.0000000     0.0000000     0.0000000     0.0000000     0.0000000     0.0000000     0.0000000
     0.0000000     0.0000000     0.0000000     0.0000000     0.0000000     0.0000000     0.0000000
     0.0000000     0.0000000     0.0000000     0.0000000     0.0000000     0.0000000     0.0000000
     0.0000000     0.0000000     0.0000000     0.0000000     0.0000000     0.0000000     0.0000000

 Ion:   12  E_soc:     -0.2235835
 l=   1
     0.0000000    -0.0377288    -0.0363712
    -0.0377288     0.0000000    -0.0377288
    -0.0363712    -0.0377288     0.0000000
 l=   2
     0.0000000    -0.0000017     0.0000000    -0.0000017     0.0000195
    -0.0000017     0.0000000     0.0000094     0.0000055    -0.0000017
     0.0000000     0.0000094     0.0000000     0.0000094     0.0000000
    -0.0000017     0.0000055     0.0000094     0.0000000    -0.0000017
     0.0000195    -0.0000017     0.0000000    -0.0000017     0.0000000
 l=   3
     0.0000000     0.0000000     0.0000000     0.0000000     0.0000000     0.0000000     0.0000000
     0.0000000     0.0000000     0.0000000     0.0000000     0.0000000     0.0000000     0.0000000
     0.0000000     0.0000000     0.0000000     0.0000000     0.0000000     0.0000000     0.0000000
     0.0000000     0.0000000     0.0000000     0.0000000     0.0000000     0.0000000     0.0000000
     0.0000000     0.0000000     0.0000000     0.0000000     0.0000000     0.0000000     0.0000000
     0.0000000     0.0000000     0.0000000     0.0000000     0.0000000     0.0000000     0.0000000
     0.0000000     0.0000000     0.0000000     0.0000000     0.0000000     0.0000000     0.0000000

 Ion:   13  E_soc:     -0.2199030
 l=   1
     0.0000000    -0.0371111    -0.0357631
    -0.0371111     0.0000000    -0.0371111
    -0.0357631    -0.0371111     0.0000000
 l=   2
     0.0000000    -0.0000017     0.0000000    -0.0000017     0.0000173
    -0.0000017     0.0000000     0.0000089     0.0000054    -0.0000017
     0.0000000     0.0000089     0.0000000     0.0000089     0.0000000
    -0.0000017     0.0000054     0.0000089     0.0000000    -0.0000017
     0.0000173    -0.0000017     0.0000000    -0.0000017     0.0000000
 l=   3
     0.0000000     0.0000000     0.0000000     0.0000000     0.0000000     0.0000000     0.0000000
     0.0000000     0.0000000     0.0000000     0.0000000     0.0000000     0.0000000     0.0000000
     0.0000000     0.0000000     0.0000000     0.0000000     0.0000000     0.0000000     0.0000000
     0.0000000     0.0000000     0.0000000     0.0000000     0.0000000     0.0000000     0.0000000
     0.0000000     0.0000000     0.0000000     0.0000000     0.0000000     0.0000000     0.0000000
     0.0000000     0.0000000     0.0000000     0.0000000     0.0000000     0.0000000     0.0000000
     0.0000000     0.0000000     0.0000000     0.0000000     0.0000000     0.0000000     0.0000000

 Ion:   14  E_soc:     -0.1968985
 l=   1
     0.0000000    -0.0323657    -0.0337338
    -0.0323657     0.0000000    -0.0323657
    -0.0337338    -0.0323657     0.0000000
 l=   2
     0.0000000    -0.0000029     0.0000000    -0.0000029     0.0000248
    -0.0000029     0.0000000     0.0000124    -0.0000223    -0.0000029
     0.0000000     0.0000124     0.0000000     0.0000124     0.0000000
    -0.0000029    -0.0000223     0.0000124     0.0000000    -0.0000029
     0.0000248    -0.0000029     0.0000000    -0.0000029     0.0000000
 l=   3
     0.0000000     0.0000000     0.0000000     0.0000000     0.0000000     0.0000000     0.0000000
     0.0000000     0.0000000     0.0000000     0.0000000     0.0000000     0.0000000     0.0000000
     0.0000000     0.0000000     0.0000000     0.0000000     0.0000000     0.0000000     0.0000000
     0.0000000     0.0000000     0.0000000     0.0000000     0.0000000     0.0000000     0.0000000
     0.0000000     0.0000000     0.0000000     0.0000000     0.0000000     0.0000000     0.0000000
     0.0000000     0.0000000     0.0000000     0.0000000     0.0000000     0.0000000     0.0000000
     0.0000000     0.0000000     0.0000000     0.0000000     0.0000000     0.0000000     0.0000000

 Ion:   15  E_soc:     -0.2214289
 l=   1
     0.0000000    -0.0374877    -0.0358066
    -0.0374877     0.0000000    -0.0374877
    -0.0358066    -0.0374877     0.0000000
 l=   2
     0.0000000    -0.0000005     0.0000000    -0.0000005     0.0000206
    -0.0000005     0.0000000     0.0000198     0.0000094    -0.0000005
     0.0000000     0.0000198     0.0000000     0.0000198     0.0000000
    -0.0000005     0.0000094     0.0000198     0.0000000    -0.0000005
     0.0000206    -0.0000005     0.0000000    -0.0000005     0.0000000
 l=   3
     0.0000000     0.0000000     0.0000000     0.0000000     0.0000000     0.0000000     0.0000000
     0.0000000     0.0000000     0.0000000     0.0000000     0.0000000     0.0000000     0.0000000
     0.0000000     0.0000000     0.0000000     0.0000000     0.0000000     0.0000000     0.0000000
     0.0000000     0.0000000     0.0000000     0.0000000     0.0000000     0.0000000     0.0000000
     0.0000000     0.0000000     0.0000000     0.0000000     0.0000000     0.0000000     0.0000000
     0.0000000     0.0000000     0.0000000     0.0000000     0.0000000     0.0000000     0.0000000
     0.0000000     0.0000000     0.0000000     0.0000000     0.0000000     0.0000000     0.0000000

 Ion:   16  E_soc:     -1.0546537
 l=   1
     0.0000000    -0.1723054    -0.1774534
    -0.1723054     0.0000000    -0.1723054
    -0.1774534    -0.1723054     0.0000000
 l=   2
     0.0000000    -0.0004019     0.0000000    -0.0004019    -0.0013813
    -0.0004019     0.0000000    -0.0009240    -0.0004256    -0.0004019
     0.0000000    -0.0009240     0.0000000    -0.0009240     0.0000000
    -0.0004019    -0.0004256    -0.0009240     0.0000000    -0.0004019
    -0.0013813    -0.0004019     0.0000000    -0.0004019     0.0000000
 l=   3
     0.0000000     0.0000000     0.0000000     0.0000000     0.0000000     0.0000000     0.0000000
     0.0000000     0.0000000     0.0000000     0.0000000     0.0000000     0.0000000     0.0000000
     0.0000000     0.0000000     0.0000000     0.0000000     0.0000000     0.0000000     0.0000000
     0.0000000     0.0000000     0.0000000     0.0000000     0.0000000     0.0000000     0.0000000
     0.0000000     0.0000000     0.0000000     0.0000000     0.0000000     0.0000000     0.0000000
     0.0000000     0.0000000     0.0000000     0.0000000     0.0000000     0.0000000     0.0000000
     0.0000000     0.0000000     0.0000000     0.0000000     0.0000000     0.0000000     0.0000000

 Ion:   17  E_soc:     -1.0753461
 l=   1
     0.0000000    -0.1764301    -0.1796690
    -0.1764301     0.0000000    -0.1764301
    -0.1796690    -0.1764301     0.0000000
 l=   2
     0.0000000    -0.0003921     0.0000000    -0.0003921    -0.0013787
    -0.0003921     0.0000000    -0.0008900    -0.0004168    -0.0003921
     0.0000000    -0.0008900     0.0000000    -0.0008900     0.0000000
    -0.0003921    -0.0004168    -0.0008900     0.0000000    -0.0003921
    -0.0013787    -0.0003921     0.0000000    -0.0003921     0.0000000
 l=   3
     0.0000000     0.0000000     0.0000000     0.0000000     0.0000000     0.0000000     0.0000000
     0.0000000     0.0000000     0.0000000     0.0000000     0.0000000     0.0000000     0.0000000
     0.0000000     0.0000000     0.0000000     0.0000000     0.0000000     0.0000000     0.0000000
     0.0000000     0.0000000     0.0000000     0.0000000     0.0000000     0.0000000     0.0000000
     0.0000000     0.0000000     0.0000000     0.0000000     0.0000000     0.0000000     0.0000000
     0.0000000     0.0000000     0.0000000     0.0000000     0.0000000     0.0000000     0.0000000
     0.0000000     0.0000000     0.0000000     0.0000000     0.0000000     0.0000000     0.0000000

 Ion:   18  E_soc:     -1.0740683
 l=   1
     0.0000000    -0.1761321    -0.1796879
    -0.1761321     0.0000000    -0.1761321
    -0.1796879    -0.1761321     0.0000000
 l=   2
     0.0000000    -0.0003902     0.0000000    -0.0003902    -0.0013785
    -0.0003902     0.0000000    -0.0008675    -0.0004075    -0.0003902
     0.0000000    -0.0008675     0.0000000    -0.0008675     0.0000000
    -0.0003902    -0.0004075    -0.0008675     0.0000000    -0.0003902
    -0.0013785    -0.0003902     0.0000000    -0.0003902     0.0000000
 l=   3
     0.0000000     0.0000000     0.0000000     0.0000000     0.0000000     0.0000000     0.0000000
     0.0000000     0.0000000     0.0000000     0.0000000     0.0000000     0.0000000     0.0000000
     0.0000000     0.0000000     0.0000000     0.0000000     0.0000000     0.0000000     0.0000000
     0.0000000     0.0000000     0.0000000     0.0000000     0.0000000     0.0000000     0.0000000
     0.0000000     0.0000000     0.0000000     0.0000000     0.0000000     0.0000000     0.0000000
     0.0000000     0.0000000     0.0000000     0.0000000     0.0000000     0.0000000     0.0000000
     0.0000000     0.0000000     0.0000000     0.0000000     0.0000000     0.0000000     0.0000000

 Ion:   19  E_soc:     -1.0702891
 l=   1
     0.0000000    -0.1754112    -0.1792153
    -0.1754112     0.0000000    -0.1754112
    -0.1792153    -0.1754112     0.0000000
 l=   2
     0.0000000    -0.0003917     0.0000000    -0.0003917    -0.0013839
    -0.0003917     0.0000000    -0.0008752    -0.0004057    -0.0003917
     0.0000000    -0.0008752     0.0000000    -0.0008752     0.0000000
    -0.0003917    -0.0004057    -0.0008752     0.0000000    -0.0003917
    -0.0013839    -0.0003917     0.0000000    -0.0003917     0.0000000
 l=   3
     0.0000000     0.0000000     0.0000000     0.0000000     0.0000000     0.0000000     0.0000000
     0.0000000     0.0000000     0.0000000     0.0000000     0.0000000     0.0000000     0.0000000
     0.0000000     0.0000000     0.0000000     0.0000000     0.0000000     0.0000000     0.0000000
     0.0000000     0.0000000     0.0000000     0.0000000     0.0000000     0.0000000     0.0000000
     0.0000000     0.0000000     0.0000000     0.0000000     0.0000000     0.0000000     0.0000000
     0.0000000     0.0000000     0.0000000     0.0000000     0.0000000     0.0000000     0.0000000
     0.0000000     0.0000000     0.0000000     0.0000000     0.0000000     0.0000000     0.0000000

 Ion:   20  E_soc:     -1.0593218
 l=   1
     0.0000000    -0.1734514    -0.1775795
    -0.1734514     0.0000000    -0.1734514
    -0.1775795    -0.1734514     0.0000000
 l=   2
     0.0000000    -0.0003926     0.0000000    -0.0003926    -0.0013864
    -0.0003926     0.0000000    -0.0009024    -0.0004169    -0.0003926
     0.0000000    -0.0009024     0.0000000    -0.0009024     0.0000000
    -0.0003926    -0.0004169    -0.0009024     0.0000000    -0.0003926
    -0.0013864    -0.0003926     0.0000000    -0.0003926     0.0000000
 l=   3
     0.0000000     0.0000000     0.0000000     0.0000000     0.0000000     0.0000000     0.0000000
     0.0000000     0.0000000     0.0000000     0.0000000     0.0000000     0.0000000     0.0000000
     0.0000000     0.0000000     0.0000000     0.0000000     0.0000000     0.0000000     0.0000000
     0.0000000     0.0000000     0.0000000     0.0000000     0.0000000     0.0000000     0.0000000
     0.0000000     0.0000000     0.0000000     0.0000000     0.0000000     0.0000000     0.0000000
     0.0000000     0.0000000     0.0000000     0.0000000     0.0000000     0.0000000     0.0000000
     0.0000000     0.0000000     0.0000000     0.0000000     0.0000000     0.0000000     0.0000000

 Ion:   21  E_soc:     -1.0433224
 l=   1
     0.0000000    -0.1702972    -0.1758024
    -0.1702972     0.0000000    -0.1702972
    -0.1758024    -0.1702972     0.0000000
 l=   2
     0.0000000    -0.0003999     0.0000000    -0.0003999    -0.0013941
    -0.0003999     0.0000000    -0.0009268    -0.0004172    -0.0003999
     0.0000000    -0.0009268     0.0000000    -0.0009268     0.0000000
    -0.0003999    -0.0004172    -0.0009268     0.0000000    -0.0003999
    -0.0013941    -0.0003999     0.0000000    -0.0003999     0.0000000
 l=   3
     0.0000000     0.0000000     0.0000000     0.0000000     0.0000000     0.0000000     0.0000000
     0.0000000     0.0000000     0.0000000     0.0000000     0.0000000     0.0000000     0.0000000
     0.0000000     0.0000000     0.0000000     0.0000000     0.0000000     0.0000000     0.0000000
     0.0000000     0.0000000     0.0000000     0.0000000     0.0000000     0.0000000     0.0000000
     0.0000000     0.0000000     0.0000000     0.0000000     0.0000000     0.0000000     0.0000000
     0.0000000     0.0000000     0.0000000     0.0000000     0.0000000     0.0000000     0.0000000
     0.0000000     0.0000000     0.0000000     0.0000000     0.0000000     0.0000000     0.0000000
 


 total charge     
 
# of ion     s       p       d       tot
----------------------------------------
  1        0.859   1.751   0.000   2.611
  2        0.859   1.751   0.000   2.611
  3        0.859   1.751   0.000   2.611
  4        0.859   1.752   0.000   2.611
  5        0.859   1.751   0.000   2.611
  6        0.859   1.752   0.000   2.611
  7        1.391   1.992   0.019   3.402
  8        1.382   2.022   0.019   3.423
  9        1.400   1.965   0.020   3.385
 10        1.399   1.966   0.020   3.386
 11        1.383   2.020   0.019   3.422
 12        1.399   1.968   0.020   3.387
 13        1.398   1.967   0.020   3.385
 14        1.381   2.020   0.019   3.420
 15        1.391   1.988   0.019   3.398
 16        1.808   1.609   0.127   3.544
 17        1.803   1.618   0.125   3.546
 18        1.802   1.615   0.124   3.542
 19        1.803   1.616   0.125   3.543
 20        1.804   1.611   0.125   3.540
 21        1.807   1.605   0.127   3.539
------------------------------------------------
tot       28.505  38.094   0.927  67.527
 


 magnetization (x)
 
# of ion     s       p       d       tot
----------------------------------------
  1        0.000   0.000   0.000   0.000
  2        0.000   0.000   0.000   0.000
  3        0.000   0.000   0.000   0.000
  4        0.000   0.000   0.000   0.000
  5        0.000   0.000   0.000   0.000
  6        0.000   0.000   0.000   0.000
  7       -0.001   0.005   0.000   0.004
  8        0.000   0.001   0.000   0.001
  9        0.001  -0.006   0.000  -0.005
 10       -0.001   0.006   0.000   0.005
 11        0.000   0.000   0.000   0.000
 12        0.001  -0.007   0.000  -0.006
 13       -0.001   0.005   0.000   0.004
 14        0.000  -0.001   0.000  -0.001
 15        0.001  -0.005   0.000  -0.004
 16        0.001  -0.001   0.000   0.000
 17       -0.001   0.004   0.000   0.002
 18        0.001  -0.003   0.000  -0.002
 19       -0.001   0.003   0.000   0.001
 20        0.001  -0.004   0.000  -0.002
 21       -0.001   0.001   0.000   0.000
------------------------------------------------
tot        0.000  -0.001   0.000  -0.001
 


 magnetization (y)
 
# of ion     s       p       d       tot
----------------------------------------
  1        0.000   0.000   0.000   0.000
  2        0.000   0.000   0.000   0.000
  3        0.000   0.000   0.000   0.000
  4        0.000   0.000   0.000   0.000
  5        0.000   0.000   0.000   0.000
  6        0.000   0.000   0.000   0.000
  7       -0.003   0.013   0.000   0.011
  8        0.001   0.003   0.000   0.004
  9        0.004  -0.016   0.000  -0.013
 10       -0.004   0.017   0.000   0.014
 11        0.000   0.000   0.000  -0.001
 12        0.004  -0.018   0.000  -0.015
 13       -0.004   0.014   0.000   0.010
 14       -0.001  -0.003   0.000  -0.004
 15        0.002  -0.012   0.000  -0.010
 16        0.003  -0.005   0.001   0.000
 17       -0.004   0.013  -0.001   0.008
 18        0.004  -0.010   0.001  -0.006
 19       -0.004   0.010  -0.001   0.005
 20        0.004  -0.011   0.001  -0.007
 21       -0.004   0.005  -0.001   0.000
------------------------------------------------
tot        0.000  -0.002   0.000  -0.003
 


 magnetization (z)
 
# of ion     s       p       d       tot
----------------------------------------
  1        0.000   0.000   0.000   0.000
  2        0.000   0.000   0.000   0.000
  3        0.000   0.000   0.000   0.000
  4        0.000   0.000   0.000   0.000
  5        0.000   0.000   0.000   0.000
  6        0.000   0.000   0.000   0.000
  7       -0.001   0.001   0.000   0.000
  8        0.000   0.001   0.000   0.001
  9        0.001   0.000   0.000   0.001
 10       -0.001   0.001   0.000   0.000
 11        0.000   0.000   0.000   0.000
 12        0.001  -0.001   0.000   0.000
 13       -0.001   0.000   0.000  -0.002
 14        0.000  -0.001   0.000  -0.001
 15        0.001   0.000   0.000   0.000
 16        0.001  -0.003   0.000  -0.002
 17        0.000   0.006   0.000   0.005
 18        0.000  -0.005   0.000  -0.004
 19       -0.001   0.005   0.000   0.004
 20        0.000  -0.005   0.000  -0.004
 21       -0.001   0.003   0.000   0.002
------------------------------------------------
tot        0.000   0.000   0.000   0.000
 

 total amount of memory used by VASP on root node   448931. kBytes
========================================================================

   base      :      30000. kBytes
   nonlr-proj:       1876. kBytes
   fftplans  :       3621. kBytes
   grid      :      14592. kBytes
   one-center:         97. kBytes
   wavefun   :     398745. kBytes
 
  
  
 General timing and accounting informations for this job:
 ========================================================
  
                  Total CPU time used (sec):     5856.636
                            User time (sec):     5836.988
                          System time (sec):       19.648
                         Elapsed time (sec):     5886.060
  
                   Maximum memory used (kb):      646892.
                   Average memory used (kb):           0.
  
                          Minor page faults:       249467
                          Major page faults:           10
                 Voluntary context switches:          545
