 vasp.5.4.4.18Apr17 -6-g9f103f2a35 (build Jun 10 2019 19:11:58) complex          
  
 executed on             LinuxIFC date 2022.08.11  16:31:01
 running on   32 total cores
 distrk:  each k-point on   32 cores,    1 groups
 distr:  one band on NCORES_PER_BAND=  16 cores,    2 groups


--------------------------------------------------------------------------------------------------------


 INCAR:
 POTCAR:   PAW_PBE Se 06Sep2000                   
 POTCAR:   PAW_PBE In 08Apr2002                   
 POTCAR:   PAW_PBE B 06Sep2000                    
 POTCAR:   PAW_PBE N 08Apr2002                    
 POTCAR:   PAW_PBE C 08Apr2002                    

 ----------------------------------------------------------------------------- 
|                                                                             |
|           W    W    AA    RRRRR   N    N  II  N    N   GGGG   !!!           |
|           W    W   A  A   R    R  NN   N  II  NN   N  G    G  !!!           |
|           W    W  A    A  R    R  N N  N  II  N N  N  G       !!!           |
|           W WW W  AAAAAA  RRRRR   N  N N  II  N  N N  G  GGG   !            |
|           WW  WW  A    A  R   R   N   NN  II  N   NN  G    G                |
|           W    W  A    A  R    R  N    N  II  N    N   GGGG   !!!           |
|                                                                             |
|      For optimal performance we recommend to set                            |
|        NCORE= 4 - approx SQRT( number of cores)                             |
|      NCORE specifies how many cores store one orbital (NPAR=cpu/NCORE).     |
|      This setting can  greatly improve the performance of VASP for DFT.     |
|      The default,   NCORE=1            might be grossly inefficient         |
|      on modern multi-core architectures or massively parallel machines.     |
|      Do your own testing !!!!                                               |
|      Unfortunately you need to use the default for GW and RPA calculations. |
|      (for HF NCORE is supported but not extensively tested yet)             |
|                                                                             |
 ----------------------------------------------------------------------------- 

 POTCAR:   PAW_PBE Se 06Sep2000                   
   VRHFIN =Se: s2p4                                                             
   LEXCH  = PE                                                                  
   EATOM  =   256.9644 eV,   18.8864 Ry                                         
                                                                                
   TITEL  = PAW_PBE Se 06Sep2000                                                
   LULTRA =        F    use ultrasoft PP ?                                      
   IUNSCR =        1    unscreen: 0-lin 1-nonlin 2-no                           
   RPACOR =    1.900    partial core radius                                     
   POMASS =   78.960; ZVAL   =    6.000    mass and valenz                      
   RCORE  =    2.100    outmost cutoff radius                                   
   RWIGS  =    2.200; RWIGS  =    1.164    wigner-seitz radius (au A)           
   ENMAX  =  211.534; ENMIN  =  158.651 eV                                      
   ICORE  =        3    local potential                                         
   LCOR   =        T    correct aug charges                                     
   LPAW   =        T    paw PP                                                  
   EAUG   =  446.842                                                            
   DEXC   =    -.031                                                            
   RMAX   =    3.170    core radius for proj-oper                               
   RAUG   =    1.300    factor for augmentation sphere                          
   RDEP   =    2.177    radius for radial grids                                 
   QCUT   =   -3.943; QGAM   =    7.886    optimization parameters              
                                                                                
   Description                                                                  
     l     E      TYP  RCUT    TYP  RCUT                                        
     0   .000     23  2.100                                                     
     0   .000     23  2.100                                                     
     1   .000     23  2.100                                                     
     1   .000     23  2.100                                                     
     2   .000     23  2.100                                                     
     3  -.100      7  2.100                                                     
  local pseudopotential read in
  partial core-charges read in
  atomic valenz-charges read in
  non local Contribution for L=           0  read in
    real space projection operators read in
  non local Contribution for L=           0  read in
    real space projection operators read in
  non local Contribution for L=           1  read in
    real space projection operators read in
  non local Contribution for L=           1  read in
    real space projection operators read in
  non local Contribution for L=           2  read in
    real space projection operators read in
    PAW grid and wavefunctions read in
 
   number of l-projection  operators is LMAX  =           5
   number of lm-projection operators is LMMAX =          13
 
 POTCAR:   PAW_PBE In 08Apr2002                   
   VRHFIN =In: s2p1                                                             
   LEXCH  = PE                                                                  
   EATOM  =    53.7908 eV,    3.9535 Ry                                         
                                                                                
   TITEL  = PAW_PBE In 08Apr2002                                                
   LULTRA =        F    use ultrasoft PP ?                                      
   IUNSCR =        1    unscreen: 0-lin 1-nonlin 2-no                           
   RPACOR =    2.400    partial core radius                                     
   POMASS =  114.820; ZVAL   =    3.000    mass and valenz                      
   RCORE  =    3.100    outmost cutoff radius                                   
   RWIGS  =    3.170; RWIGS  =    1.677    wigner-seitz radius (au A)           
   ENMAX  =   95.934; ENMIN  =   71.951 eV                                      
   ICORE  =        3    local potential                                         
   LCOR   =        T    correct aug charges                                     
   LPAW   =        T    paw PP                                                  
   EAUG   =  237.125                                                            
   DEXC   =    -.110                                                            
   RMAX   =    4.707    core radius for proj-oper                               
   RAUG   =    1.300    factor for augmentation sphere                          
   RDEP   =    3.187    radius for radial grids                                 
   QCUT   =   -2.655; QGAM   =    5.311    optimization parameters              
                                                                                
   Description                                                                  
     l     E      TYP  RCUT    TYP  RCUT                                        
     0   .000     23  3.100                                                     
     0   .000     23  3.100                                                     
     1   .000     23  3.100                                                     
     1   .000     23  3.100                                                     
     2  -.100     23  3.100                                                     
     3  -.100     23  3.100                                                     
  local pseudopotential read in
  partial core-charges read in
  atomic valenz-charges read in
  non local Contribution for L=           0  read in
    real space projection operators read in
  non local Contribution for L=           0  read in
    real space projection operators read in
  non local Contribution for L=           1  read in
    real space projection operators read in
  non local Contribution for L=           1  read in
    real space projection operators read in
  non local Contribution for L=           2  read in
    real space projection operators read in
    PAW grid and wavefunctions read in
 
   number of l-projection  operators is LMAX  =           5
   number of lm-projection operators is LMMAX =          13
 
 POTCAR:   PAW_PBE B 06Sep2000                    
   VRHFIN =B: s2p1                                                              
   LEXCH  = PE                                                                  
   EATOM  =    71.1810 eV,    5.2317 Ry                                         
                                                                                
   TITEL  = PAW_PBE B 06Sep2000                                                 
   LULTRA =        F    use ultrasoft PP ?                                      
   IUNSCR =        0    unscreen: 0-lin 1-nonlin 2-no                           
   RPACOR =     .000    partial core radius                                     
   POMASS =   10.811; ZVAL   =    3.000    mass and valenz                      
   RCORE  =    1.700    outmost cutoff radius                                   
   RWIGS  =    1.710; RWIGS  =     .905    wigner-seitz radius (au A)           
   ENMAX  =  318.606; ENMIN  =  238.954 eV                                      
   ICORE  =        2    local potential                                         
   LCOR   =        T    correct aug charges                                     
   LPAW   =        T    paw PP                                                  
   EAUG   =  535.514                                                            
   DEXC   =     .000                                                            
   RMAX   =    2.583    core radius for proj-oper                               
   RAUG   =    1.300    factor for augmentation sphere                          
   RDEP   =    1.757    radius for radial grids                                 
   QCUT   =   -4.839; QGAM   =    9.678    optimization parameters              
                                                                                
   Description                                                                  
     l     E      TYP  RCUT    TYP  RCUT                                        
     0   .000     23  1.500                                                     
     0   .000     23  1.500                                                     
     1   .000     23  1.700                                                     
     1   .000     23  1.700                                                     
     2   .000      7  1.700                                                     
  local pseudopotential read in
  atomic valenz-charges read in
  non local Contribution for L=           0  read in
    real space projection operators read in
  non local Contribution for L=           0  read in
    real space projection operators read in
  non local Contribution for L=           1  read in
    real space projection operators read in
  non local Contribution for L=           1  read in
    real space projection operators read in
    PAW grid and wavefunctions read in
 
   number of l-projection  operators is LMAX  =           4
   number of lm-projection operators is LMMAX =           8
 
 POTCAR:   PAW_PBE N 08Apr2002                    
   VRHFIN =N: s2p3                                                              
   LEXCH  = PE                                                                  
   EATOM  =   264.5486 eV,   19.4438 Ry                                         
                                                                                
   TITEL  = PAW_PBE N 08Apr2002                                                 
   LULTRA =        F    use ultrasoft PP ?                                      
   IUNSCR =        0    unscreen: 0-lin 1-nonlin 2-no                           
   RPACOR =     .000    partial core radius                                     
   POMASS =   14.001; ZVAL   =    5.000    mass and valenz                      
   RCORE  =    1.500    outmost cutoff radius                                   
   RWIGS  =    1.400; RWIGS  =     .741    wigner-seitz radius (au A)           
   ENMAX  =  400.000; ENMIN  =  300.000 eV                                      
   ICORE  =        2    local potential                                         
   LCOR   =        T    correct aug charges                                     
   LPAW   =        T    paw PP                                                  
   EAUG   =  627.112                                                            
   DEXC   =     .000                                                            
   RMAX   =    2.247    core radius for proj-oper                               
   RAUG   =    1.300    factor for augmentation sphere                          
   RDEP   =    1.514    radius for radial grids                                 
   QCUT   =   -5.562; QGAM   =   11.124    optimization parameters              
                                                                                
   Description                                                                  
     l     E      TYP  RCUT    TYP  RCUT                                        
     0   .000     23  1.200                                                     
     0   .000     23  1.200                                                     
     1   .000     23  1.500                                                     
     1   .700     23  1.500                                                     
     2   .000      7  1.500                                                     
  local pseudopotential read in
  atomic valenz-charges read in
  non local Contribution for L=           0  read in
    real space projection operators read in
  non local Contribution for L=           0  read in
    real space projection operators read in
  non local Contribution for L=           1  read in
    real space projection operators read in
  non local Contribution for L=           1  read in
    real space projection operators read in
    PAW grid and wavefunctions read in
 
   number of l-projection  operators is LMAX  =           4
   number of lm-projection operators is LMMAX =           8
 
 POTCAR:   PAW_PBE C 08Apr2002                    
   VRHFIN =C: s2p2                                                              
   LEXCH  = PE                                                                  
   EATOM  =   147.1560 eV,   10.8157 Ry                                         
                                                                                
   TITEL  = PAW_PBE C 08Apr2002                                                 
   LULTRA =        F    use ultrasoft PP ?                                      
   IUNSCR =        0    unscreen: 0-lin 1-nonlin 2-no                           
   RPACOR =     .000    partial core radius                                     
   POMASS =   12.011; ZVAL   =    4.000    mass and valenz                      
   RCORE  =    1.500    outmost cutoff radius                                   
   RWIGS  =    1.630; RWIGS  =     .863    wigner-seitz radius (au A)           
   ENMAX  =  400.000; ENMIN  =  300.000 eV                                      
   ICORE  =        2    local potential                                         
   LCOR   =        T    correct aug charges                                     
   LPAW   =        T    paw PP                                                  
   EAUG   =  644.873                                                            
   DEXC   =     .000                                                            
   RMAX   =    2.266    core radius for proj-oper                               
   RAUG   =    1.300    factor for augmentation sphere                          
   RDEP   =    1.501    radius for radial grids                                 
   RDEPT  =    1.300    core radius for aug-charge                              
   QCUT   =   -5.516; QGAM   =   11.032    optimization parameters              
                                                                                
   Description                                                                  
     l     E      TYP  RCUT    TYP  RCUT                                        
     0   .000     23  1.200                                                     
     0   .000     23  1.200                                                     
     1   .000     23  1.500                                                     
     1  2.500     23  1.500                                                     
     2   .000      7  1.500                                                     
  local pseudopotential read in
  atomic valenz-charges read in
  non local Contribution for L=           0  read in
    real space projection operators read in
  non local Contribution for L=           0  read in
    real space projection operators read in
  non local Contribution for L=           1  read in
    real space projection operators read in
  non local Contribution for L=           1  read in
    real space projection operators read in
    PAW grid and wavefunctions read in
 
   number of l-projection  operators is LMAX  =           4
   number of lm-projection operators is LMMAX =           8
 

 ----------------------------------------------------------------------------- 
|                                                                             |
|  ADVICE TO THIS USER RUNNING 'VASP/VAMP'   (HEAR YOUR MASTER'S VOICE ...):  |
|                                                                             |
|      You have a (more or less) 'large supercell' and for larger cells       |
|      it might be more efficient to use real space projection operators      |
|      So try LREAL= Auto  in the INCAR   file.                               |
|      Mind: If you want to do a very accurate calculations keep the          |
|      reciprocal projection scheme          (i.e. LREAL=.FALSE.)             |
|                                                                             |
 ----------------------------------------------------------------------------- 

 PAW_PBE Se 06Sep2000                   :
 energy of atom  1       EATOM= -256.9644
 kinetic energy error for atom=    0.0011 (will be added to EATOM!!)
 PAW_PBE In 08Apr2002                   :
 energy of atom  2       EATOM=  -53.7908
 kinetic energy error for atom=    0.0000 (will be added to EATOM!!)
 PAW_PBE B 06Sep2000                    :
 energy of atom  3       EATOM=  -71.1810
 kinetic energy error for atom=    0.0015 (will be added to EATOM!!)
 PAW_PBE N 08Apr2002                    :
 energy of atom  4       EATOM= -264.5486
 kinetic energy error for atom=    0.0253 (will be added to EATOM!!)
 PAW_PBE C 08Apr2002                    :
 energy of atom  5       EATOM= -147.1560
 kinetic energy error for atom=    0.0116 (will be added to EATOM!!)
 
 
 POSCAR: poscar.py                               
  positions in direct lattice
  velocities in cartesian coordinates
 exchange correlation table for  LEXCH =        8
   RHO(1)=    0.500       N(1)  =     2000
   RHO(2)=  100.500       N(2)  =     4000
 


--------------------------------------------------------------------------------------------------------


 ion  position               nearest neighbor table
   1  1.000  1.000  0.987-  40 2.69  28 2.69  44 2.69
   2  0.111  0.222  0.128-  28 2.54  33 2.90  29 2.90  35 2.90
   3  0.000  0.000  0.237-  29 2.73  33 2.73  45 2.73
   4  0.334  0.001  0.988-  40 2.69  30 2.69  42 2.69
   5  0.445  0.222  0.129-  30 2.54  29 2.89  31 2.91  37 2.91
   6  0.332  0.999  0.238-  31 2.72  41 2.73  29 2.73
   7  0.667  0.001  0.988-  42 2.69  32 2.69  44 2.69
   8  0.778  0.222  0.129-  32 2.54  33 2.90  39 2.91  31 2.91
   9  0.667  0.999  0.238-  31 2.72  43 2.73  33 2.73
  10  1.000  0.333  0.988-  28 2.69  34 2.69  32 2.69
  11  0.111  0.555  0.128-  34 2.54  35 2.90  41 2.90  39 2.91
  12  0.001  0.333  0.238-  39 2.72  35 2.73  33 2.73
  13  0.334  0.333  0.988-  36 2.69  30 2.69  28 2.69
  14  0.445  0.555  0.128-  36 2.54  35 2.90  43 2.90  37 2.91
  15  0.332  0.333  0.238-  37 2.72  35 2.73  29 2.73
  16  0.667  0.333  0.988-  30 2.69  38 2.69  32 2.69
  17  0.778  0.555  0.129-  38 2.54  45 2.90  39 2.91  37 2.91
  18  0.667  0.333  0.238-  39 2.73  37 2.73  31 2.73
  19  1.000  0.666  0.988-  40 2.69  34 2.69  38 2.69
  20  0.111  0.889  0.128-  40 2.54  45 2.90  29 2.90  41 2.90
  21  0.001  0.667  0.238-  39 2.72  41 2.73  45 2.73
  22  0.333  0.667  0.987-  36 2.69  42 2.69  34 2.69
  23  0.445  0.889  0.128-  42 2.54  43 2.90  41 2.90  31 2.91
  24  0.333  0.667  0.237-  35 2.72  41 2.73  43 2.73
  25  0.667  0.666  0.988-  36 2.69  38 2.69  44 2.69
  26  0.778  0.889  0.128-  44 2.54  33 2.90  45 2.90  43 2.91
  27  0.667  0.667  0.238-  37 2.72  43 2.73  45 2.73
  28  0.111  0.222  0.032-   2 2.54  10 2.69  13 2.69   1 2.69
  29  0.222  0.111  0.189-   3 2.73   6 2.73  15 2.73   5 2.89  20 2.90   2 2.90
  30  0.444  0.222  0.033-   5 2.54  16 2.69  13 2.69   4 2.69
  31  0.555  0.111  0.190-   6 2.72   9 2.72  18 2.73   5 2.91   8 2.91  23 2.91
  32  0.778  0.222  0.033-   8 2.54  16 2.69   7 2.69  10 2.69
  33  0.889  0.111  0.189-   3 2.73   9 2.73  12 2.73   8 2.90  26 2.90   2 2.90
  34  0.111  0.556  0.033-  11 2.54  10 2.69  19 2.69  22 2.69
  35  0.223  0.445  0.189-  24 2.72  15 2.73  12 2.73  14 2.90  11 2.90   2 2.90
  36  0.444  0.556  0.033-  14 2.54  25 2.69  13 2.69  22 2.69
  37  0.555  0.445  0.190-  27 2.72  15 2.72  18 2.73   5 2.91  17 2.91  14 2.91
  38  0.778  0.556  0.033-  17 2.54  16 2.69  25 2.69  19 2.69
  39  0.889  0.445  0.190-  21 2.72  12 2.72  18 2.73  17 2.91   8 2.91  11 2.91
  40  0.111  0.889  0.032-  20 2.54  19 2.69   1 2.69   4 2.69
  41  0.222  0.778  0.189-   6 2.73  24 2.73  21 2.73  23 2.90  11 2.90  20 2.90
  42  0.445  0.889  0.033-  23 2.54   7 2.69   4 2.69  22 2.69
  43  0.555  0.778  0.189-  27 2.73   9 2.73  24 2.73  23 2.90  14 2.90  26 2.91
  44  0.778  0.889  0.032-  26 2.54  25 2.69   7 2.69   1 2.69
  45  0.889  0.778  0.189-   3 2.73  21 2.73  27 2.73  17 2.90  26 2.90  20 2.90
  46  0.269  0.136  0.364-  75 1.44  70 1.45  95 1.50
  47  0.467  0.133  0.363-  70 1.44  76 1.45  71 1.45
  48  0.667  0.133  0.363-  71 1.44  77 1.44  72 1.45
  49  0.868  0.134  0.364-  78 1.43  72 1.44  73 1.45
  50  0.066  0.332  0.363-  78 1.44  79 1.44  74 1.45
  51  0.266  0.332  0.363-  75 1.43  80 1.45  74 1.47
  52  0.468  0.335  0.363-  75 1.44  81 1.44  76 1.44
  53  0.667  0.333  0.363-  76 1.44  82 1.44  77 1.45
  54  0.866  0.334  0.363-  77 1.44  83 1.44  78 1.45
  55  0.067  0.533  0.362-  84 1.44  83 1.44  79 1.45
  56  0.267  0.533  0.364-  80 1.44  85 1.44  79 1.45
  57  0.466  0.533  0.362-  81 1.44  86 1.45  80 1.45
  58  0.667  0.533  0.363-  87 1.44  81 1.44  82 1.44
  59  0.867  0.533  0.363-  88 1.44  82 1.44  83 1.45
  60  0.067  0.733  0.363-  89 1.44  84 1.45  88 1.45
  61  0.267  0.733  0.364-  84 1.44  90 1.45  85 1.45
  62  0.467  0.733  0.364-  86 1.44  85 1.44  91 1.44
  63  0.667  0.734  0.363-  87 1.44  86 1.45  92 1.45
  64  0.865  0.732  0.364-  93 1.44  87 1.44  88 1.44
  65  0.064  0.931  0.363-  93 1.44  89 1.45  95 1.50
  66  0.266  0.934  0.363-  89 1.45  70 1.45  90 1.45
  67  0.467  0.933  0.362-  90 1.44  71 1.45  91 1.45
  68  0.667  0.933  0.363-  92 1.44  91 1.44  72 1.45
  69  0.868  0.934  0.363-  93 1.43  92 1.45  73 1.47
  70  0.334  0.067  0.365-  47 1.44  66 1.45  46 1.45
  71  0.534  0.067  0.362-  48 1.44  67 1.45  47 1.45
  72  0.735  0.067  0.365-  49 1.44  68 1.45  48 1.45
  73  0.937  0.070  0.363-  94 1.40  49 1.45  69 1.47
  74  0.130  0.263  0.363-  94 1.40  50 1.45  51 1.47
  75  0.335  0.269  0.365-  51 1.43  52 1.44  46 1.44
  76  0.534  0.267  0.363-  53 1.44  52 1.44  47 1.45
  77  0.734  0.267  0.363-  54 1.44  48 1.44  53 1.45
  78  0.933  0.267  0.365-  49 1.43  50 1.44  54 1.45
  79  0.133  0.466  0.363-  50 1.44  56 1.45  55 1.45
  80  0.332  0.466  0.363-  56 1.44  51 1.45  57 1.45
  81  0.534  0.467  0.362-  52 1.44  58 1.44  57 1.44
  82  0.733  0.467  0.363-  59 1.44  53 1.44  58 1.44
  83  0.933  0.467  0.362-  54 1.44  55 1.44  59 1.45
  84  0.133  0.666  0.363-  55 1.44  61 1.44  60 1.45
  85  0.333  0.666  0.366-  56 1.44  62 1.44  61 1.45
  86  0.533  0.667  0.363-  62 1.44  57 1.45  63 1.45
  87  0.733  0.666  0.365-  64 1.44  58 1.44  63 1.44
  88  0.933  0.666  0.365-  59 1.44  64 1.44  60 1.45
  89  0.133  0.866  0.362-  60 1.44  66 1.45  65 1.45
  90  0.333  0.867  0.363-  67 1.44  61 1.45  66 1.45
  91  0.534  0.867  0.363-  62 1.44  68 1.44  67 1.45
  92  0.734  0.868  0.362-  68 1.44  69 1.45  63 1.45
  93  0.931  0.864  0.363-  69 1.43  64 1.44  65 1.44
  94  0.067  0.133  0.363-  95 1.38  73 1.40  74 1.40
  95  0.130  0.070  0.363-  94 1.38  65 1.50  46 1.50
 
  LATTYP: Found a hexagonal cell.
 ALAT       =    12.5064857804
 C/A-ratio  =     2.1268964333
  
  Lattice vectors:
  
 A1 = (   6.2532428902, -10.8309343979,   0.0000000000)
 A2 = (   6.2532428902,  10.8309343979,   0.0000000000)
 A3 = (   0.0000000000,   0.0000000000,  26.6000000000)


Analysis of symmetry for initial positions (statically):
=====================================================================
 Subroutine PRICEL returns:
 Original cell was already a primitive cell.
 

 Routine SETGRP: Setting up the symmetry group for a 
 hexagonal supercell.


 Subroutine GETGRP returns: Found  1 space group operations
 (whereof  1 operations were pure point group operations)
 out of a pool of 24 trial point group operations.


The static configuration has the point symmetry C_1 .


Analysis of symmetry for dynamics (positions and initial velocities):
=====================================================================
 Subroutine PRICEL returns:
 Original cell was already a primitive cell.
 

 Routine SETGRP: Setting up the symmetry group for a 
 hexagonal supercell.


 Subroutine GETGRP returns: Found  1 space group operations
 (whereof  1 operations were pure point group operations)
 out of a pool of 24 trial point group operations.


The dynamic configuration has the point symmetry C_1 .


Analysis of constrained symmetry for selective dynamics:
=====================================================================
 Subroutine PRICEL returns:
 Original cell was already a primitive cell.
 

 Routine SETGRP: Setting up the symmetry group for a 
 hexagonal supercell.


 Subroutine GETGRP returns: Found  1 space group operations
 (whereof  1 operations were pure point group operations)
 out of a pool of 24 trial point group operations.


The constrained configuration has the point symmetry C_1 .


 Subroutine INISYM returns: Found  1 space group operations
 (whereof  1 operations are pure point group operations),
 and found     1 'primitive' translations

 
 
 KPOINTS: k                                       
  interpolating k-points between supplied coordinates
  k-points in reciprocal lattice
Space group operators:
 irot       det(A)        alpha          n_x          n_y          n_z        tau_x        tau_y        tau_z
    1     1.000000     0.000000     1.000000     0.000000     0.000000     0.000000     0.000000     0.000000


--------------------------------------------------------------------------------------------------------




 Dimension of arrays:
   k-points           NKPTS =     60   k-points in BZ     NKDIM =     60   number of bands    NBANDS=    256
   number of dos      NEDOS =    301   number of ions     NIONS =     95
   non local maximal  LDIM  =      5   non local SUM 2l+1 LMDIM =     13
   total plane-waves  NPLWV = 686000
   max r-space proj   IRMAX =      1   max aug-charges    IRDMAX= 172003
   dimension x,y,z NGX =    70 NGY =   70 NGZ =  140
   dimension x,y,z NGXF=   140 NGYF=  140 NGZF=  280
   support grid    NGXF=   280 NGYF=  280 NGZF=  560
   ions per type =              27  18  24  24   2
   NGX,Y,Z   is equivalent  to a cutoff of   9.30,  9.30,  8.75 a.u.
   NGXF,Y,Z  is equivalent  to a cutoff of  18.61, 18.61, 17.50 a.u.

 SYSTEM =  unknown system                          
 POSCAR =  poscar.py                               

 Startparameter for this run:
   NWRITE =      2    write-flag & timer
   PREC   = normal    normal or accurate (medium, high low for compatibility)
   ISTART =      0    job   : 0-new  1-cont  2-samecut
   ICHARG =     11    charge: 1-file 2-atom 10-const
   ISPIN  =      1    spin polarized calculation?
   LNONCOLLINEAR =      F non collinear calculations
   LSORBIT =      F    spin-orbit coupling
   INIWAV =      1    electr: 0-lowe 1-rand  2-diag
   LASPH  =      F    aspherical Exc in radial PAW
   METAGGA=      F    non-selfconsistent MetaGGA calc.

 Electronic Relaxation 1
   ENCUT  =  450.0 eV  33.07 Ry    5.75 a.u.  21.63 21.63 46.01*2*pi/ulx,y,z
   ENINI  =  450.0     initial cutoff
   ENAUG  =  644.9 eV  augmentation charge cutoff
   NELM   =    100;   NELMIN=  8; NELMDL= -5     # of ELM steps 
   EDIFF  = 0.1E-05   stopping-criterion for ELM
   LREAL  =      F    real-space projection
   NLSPLINE    = F    spline interpolate recip. space projectors
   LCOMPAT=      F    compatible to vasp.4.4
   GGA_COMPAT  = T    GGA compatible to vasp.4.4-vasp.4.6
   LMAXPAW     = -100 max onsite density
   LMAXMIX     =    2 max onsite mixed and CHGCAR
   VOSKOWN=      0    Vosko Wilk Nusair interpolation
   ROPT   =    0.00000   0.00000   0.00000   0.00000
   ROPT   =    0.00000
 Ionic relaxation
   EDIFFG = 0.1E-04   stopping-criterion for IOM
   NSW    =      0    number of steps for IOM
   NBLOCK =      1;   KBLOCK =      1    inner block; outer block 
   IBRION =     -1    ionic relax: 0-MD 1-quasi-New 2-CG
   NFREE  =      0    steps in history (QN), initial steepest desc. (CG)
   ISIF   =      2    stress and relaxation
   IWAVPR =     10    prediction:  0-non 1-charg 2-wave 3-comb
   ISYM   =      2    0-nonsym 1-usesym 2-fastsym
   LCORR  =      T    Harris-Foulkes like correction to forces

   POTIM  = 0.5000    time-step for ionic-motion
   TEIN   =    0.0    initial temperature
   TEBEG  =    0.0;   TEEND  =   0.0 temperature during run
   SMASS  =  -3.00    Nose mass-parameter (am)
   estimated Nose-frequenzy (Omega)   =  0.10E-29 period in steps =****** mass=  -0.357E-26a.u.
   SCALEE = 1.0000    scale energy and forces
   NPACO  =    256;   APACO  = 16.0  distance and # of slots for P.C.
   PSTRESS=    0.0 pullay stress

  Mass of Ions in am
   POMASS =  78.96114.82 10.81 14.00 12.01
  Ionic Valenz
   ZVAL   =   6.00  3.00  3.00  5.00  4.00
  Atomic Wigner-Seitz radii
   RWIGS  =  -1.00 -1.00 -1.00 -1.00 -1.00
  virtual crystal weights 
   VCA    =   1.00  1.00  1.00  1.00  1.00
   NELECT =     416.0000    total number of electrons
   NUPDOWN=      -1.0000    fix difference up-down

 DOS related values:
   EMIN   =  10.00;   EMAX   =-10.00  energy-range for DOS
   EFERMI =   0.00
   ISMEAR =     1;   SIGMA  =   0.05  broadening in eV -4-tet -1-fermi 0-gaus

 Electronic relaxation 2 (details)
   IALGO  =     68    algorithm
   LDIAG  =      T    sub-space diagonalisation (order eigenvalues)
   LSUBROT=      F    optimize rotation matrix (better conditioning)
   TURBO    =      0    0=normal 1=particle mesh
   IRESTART =      0    0=no restart 2=restart with 2 vectors
   NREBOOT  =      0    no. of reboots
   NMIN     =      0    reboot dimension
   EREF     =   0.00    reference energy to select bands
   IMIX   =      4    mixing-type and parameters
     AMIX     =   0.40;   BMIX     =  1.00
     AMIX_MAG =   1.60;   BMIX_MAG =  1.00
     AMIN     =   0.10
     WC   =   100.;   INIMIX=   1;  MIXPRE=   1;  MAXMIX= -45

 Intra band minimization:
   WEIMIN = 0.0000     energy-eigenvalue tresh-hold
   EBREAK =  0.98E-09  absolut break condition
   DEPER  =   0.30     relativ break condition  

   TIME   =   0.40     timestep for ELM

  volume/ion in A,a.u.               =      37.93       255.95
  Fermi-wavevector in a.u.,A,eV,Ry     =   0.797159  1.506412  8.645993  0.635463
  Thomas-Fermi vector in A             =   1.903822
 
 Write flags
   LWAVE        =      F    write WAVECAR
   LDOWNSAMPLE  =      F    k-point downsampling of WAVECAR
   LCHARG       =      F    write CHGCAR
   LVTOT        =      F    write LOCPOT, total local potential
   LVHAR        =      F    write LOCPOT, Hartree potential only
   LELF         =      F    write electronic localiz. function (ELF)
   LORBIT       =     11    0 simple, 1 ext, 2 COOP (PROOUT), +10 PAW based schemes


 Dipole corrections
   LMONO  =      F    monopole corrections only (constant potential shift)
   LDIPOL =      F    correct potential (dipole corrections)
   IDIPOL =      0    1-x, 2-y, 3-z, 4-all directions 
   EPSILON=  1.0000000 bulk dielectric constant

 Exchange correlation treatment:
   GGA     =    --    GGA type
   LEXCH   =     8    internal setting for exchange type
   VOSKOWN=      0    Vosko Wilk Nusair interpolation
   LHFCALC =     F    Hartree Fock is set to
   LHFONE  =     F    Hartree Fock one center treatment
   AEXX    =    0.0000 exact exchange contribution

 Linear response parameters
   LEPSILON=     F    determine dielectric tensor
   LRPA    =     F    only Hartree local field effects (RPA)
   LNABLA  =     F    use nabla operator in PAW spheres
   LVEL    =     F    velocity operator in full k-point grid
   LINTERFAST=   F  fast interpolation
   KINTER  =     0    interpolate to denser k-point grid
   CSHIFT  =0.1000    complex shift for real part using Kramers Kronig
   OMEGAMAX=  -1.0    maximum frequency
   DEG_THRESHOLD= 0.2000000E-02 threshold for treating states as degnerate
   RTIME   =   -0.100 relaxation time in fs
  (WPLASMAI=    0.000 imaginary part of plasma frequency in eV, 0.658/RTIME)
   DFIELD  = 0.0000000 0.0000000 0.0000000 field for delta impulse in time
 
 Orbital magnetization related:
   ORBITALMAG=     F  switch on orbital magnetization
   LCHIMAG   =     F  perturbation theory with respect to B field
   DQ        =  0.001000  dq finite difference perturbation B field
   LLRAUG    =     F  two centre corrections for induced B field



--------------------------------------------------------------------------------------------------------


 Static calculation
 charge density and potential remain constant during run
 non-spin polarized calculation
 RMM-DIIS sequential band-by-band and
  variant of blocked Davidson during initial phase
 perform sub-space diagonalisation
    before iterative eigenvector-optimisation
 no mixing
 using additional bands           48
 reciprocal scheme for non local part
 use partial core corrections
 calculate Harris-corrections to forces 
   (improved forces if not selfconsistent)
 use gradient corrections 
 WARNING: stress and forces are not correct
  (second derivative of E(xc) not defined)
 use of overlap-Matrix (Vanderbilt PP)
 Methfessel and Paxton  Order N= 1 SIGMA  =   0.05


--------------------------------------------------------------------------------------------------------


  energy-cutoff  :      450.00
  volume of cell :     3603.15
      direct lattice vectors                 reciprocal lattice vectors
     6.253242890 -10.830934398  0.000000000     0.079958513 -0.046164069  0.000000000
     6.253242890 10.830934398  0.000000000     0.079958513  0.046164069  0.000000000
     0.000000000  0.000000000 26.600000000     0.000000000  0.000000000  0.037593985

  length of vectors
    12.506485780 12.506485780 26.600000000     0.092328137  0.092328137  0.037593985


 
 k-points in units of 2pi/SCALE and weight: k                                       
   0.03997926 -0.02308203  0.00000000       0.017
   0.03787508 -0.02186719  0.00000000       0.017
   0.03577091 -0.02065235  0.00000000       0.017
   0.03366674 -0.01943750  0.00000000       0.017
   0.03156257 -0.01822266  0.00000000       0.017
   0.02945840 -0.01700781  0.00000000       0.017
   0.02735423 -0.01579297  0.00000000       0.017
   0.02525006 -0.01457813  0.00000000       0.017
   0.02314589 -0.01336328  0.00000000       0.017
   0.02104171 -0.01214844  0.00000000       0.017
   0.01893754 -0.01093360  0.00000000       0.017
   0.01683337 -0.00971875  0.00000000       0.017
   0.01472920 -0.00850391  0.00000000       0.017
   0.01262503 -0.00728906  0.00000000       0.017
   0.01052086 -0.00607422  0.00000000       0.017
   0.00841669 -0.00485938  0.00000000       0.017
   0.00631251 -0.00364453  0.00000000       0.017
   0.00420834 -0.00242969  0.00000000       0.017
   0.00210417 -0.00121484  0.00000000       0.017
   0.00000000  0.00000000  0.00000000       0.017
   0.00000000  0.00000000  0.00000000       0.017
   0.00280555 -0.00000001  0.00000000       0.017
   0.00561110 -0.00000002  0.00000000       0.017
   0.00841664 -0.00000002  0.00000000       0.017
   0.01122219 -0.00000003  0.00000000       0.017
   0.01402774 -0.00000004  0.00000000       0.017
   0.01683329 -0.00000005  0.00000000       0.017
   0.01963883 -0.00000006  0.00000000       0.017
   0.02244438 -0.00000006  0.00000000       0.017
   0.02524993 -0.00000007  0.00000000       0.017
   0.02805548 -0.00000008  0.00000000       0.017
   0.03086102 -0.00000009  0.00000000       0.017
   0.03366657 -0.00000010  0.00000000       0.017
   0.03647212 -0.00000010  0.00000000       0.017
   0.03927767 -0.00000011  0.00000000       0.017
   0.04208322 -0.00000012  0.00000000       0.017
   0.04488876 -0.00000013  0.00000000       0.017
   0.04769431 -0.00000014  0.00000000       0.017
   0.05049986 -0.00000014  0.00000000       0.017
   0.05330541 -0.00000015  0.00000000       0.017
   0.05330541 -0.00000015  0.00000000       0.017
   0.05260403 -0.00121499  0.00000000       0.017
   0.05190265 -0.00242982  0.00000000       0.017
   0.05120128 -0.00364466  0.00000000       0.017
   0.05049990 -0.00485950  0.00000000       0.017
   0.04979852 -0.00607433  0.00000000       0.017
   0.04909715 -0.00728917  0.00000000       0.017
   0.04839577 -0.00850400  0.00000000       0.017
   0.04769440 -0.00971884  0.00000000       0.017
   0.04699302 -0.01093368  0.00000000       0.017
   0.04629164 -0.01214851  0.00000000       0.017
   0.04559027 -0.01336335  0.00000000       0.017
   0.04488889 -0.01457818  0.00000000       0.017
   0.04418751 -0.01579302  0.00000000       0.017
   0.04348614 -0.01700785  0.00000000       0.017
   0.04278476 -0.01822269  0.00000000       0.017
   0.04208339 -0.01943753  0.00000000       0.017
   0.04138201 -0.02065236  0.00000000       0.017
   0.04068063 -0.02186720  0.00000000       0.017
   0.03997926 -0.02308203  0.00000000       0.017
 
 k-points in reciprocal lattice and weights: k                                       
   0.50000000  0.00000000  0.00000000       0.017
   0.47368421  0.00000000  0.00000000       0.017
   0.44736842  0.00000000  0.00000000       0.017
   0.42105263  0.00000000  0.00000000       0.017
   0.39473684  0.00000000  0.00000000       0.017
   0.36842105  0.00000000  0.00000000       0.017
   0.34210526  0.00000000  0.00000000       0.017
   0.31578947  0.00000000  0.00000000       0.017
   0.28947368  0.00000000  0.00000000       0.017
   0.26315789  0.00000000  0.00000000       0.017
   0.23684211  0.00000000  0.00000000       0.017
   0.21052632  0.00000000  0.00000000       0.017
   0.18421053  0.00000000  0.00000000       0.017
   0.15789474  0.00000000  0.00000000       0.017
   0.13157895  0.00000000  0.00000000       0.017
   0.10526316  0.00000000  0.00000000       0.017
   0.07894737  0.00000000  0.00000000       0.017
   0.05263158  0.00000000  0.00000000       0.017
   0.02631579  0.00000000  0.00000000       0.017
   0.00000000  0.00000000  0.00000000       0.017
   0.00000000  0.00000000  0.00000000       0.017
   0.01754386  0.01754368  0.00000000       0.017
   0.03508772  0.03508737  0.00000000       0.017
   0.05263157  0.05263105  0.00000000       0.017
   0.07017543  0.07017474  0.00000000       0.017
   0.08771929  0.08771842  0.00000000       0.017
   0.10526315  0.10526211  0.00000000       0.017
   0.12280701  0.12280579  0.00000000       0.017
   0.14035086  0.14034947  0.00000000       0.017
   0.15789472  0.15789316  0.00000000       0.017
   0.17543858  0.17543684  0.00000000       0.017
   0.19298244  0.19298053  0.00000000       0.017
   0.21052629  0.21052421  0.00000000       0.017
   0.22807015  0.22806789  0.00000000       0.017
   0.24561401  0.24561158  0.00000000       0.017
   0.26315787  0.26315526  0.00000000       0.017
   0.28070173  0.28069895  0.00000000       0.017
   0.29824558  0.29824263  0.00000000       0.017
   0.31578944  0.31578632  0.00000000       0.017
   0.33333330  0.33333000  0.00000000       0.017
   0.33333330  0.33333000  0.00000000       0.017
   0.34210523  0.31578632  0.00000000       0.017
   0.35087716  0.29824263  0.00000000       0.017
   0.35964909  0.28069895  0.00000000       0.017
   0.36842103  0.26315526  0.00000000       0.017
   0.37719296  0.24561158  0.00000000       0.017
   0.38596489  0.22806789  0.00000000       0.017
   0.39473682  0.21052421  0.00000000       0.017
   0.40350875  0.19298053  0.00000000       0.017
   0.41228068  0.17543684  0.00000000       0.017
   0.42105262  0.15789316  0.00000000       0.017
   0.42982455  0.14034947  0.00000000       0.017
   0.43859648  0.12280579  0.00000000       0.017
   0.44736841  0.10526211  0.00000000       0.017
   0.45614034  0.08771842  0.00000000       0.017
   0.46491227  0.07017474  0.00000000       0.017
   0.47368421  0.05263105  0.00000000       0.017
   0.48245614  0.03508737  0.00000000       0.017
   0.49122807  0.01754368  0.00000000       0.017
   0.50000000  0.00000000  0.00000000       0.017
 
 position of ions in fractional coordinates (direct lattice) 
   0.99991007  0.99997602  0.98715019
   0.11103362  0.22229756  0.12812301
   0.00029235  0.00017959  0.23749769
   0.33366202  0.00051978  0.98752477
   0.44482311  0.22246951  0.12887804
   0.33249535  0.99933129  0.23756755
   0.66673174  0.00056241  0.98752477
   0.77754367  0.22241642  0.12887804
   0.66658580  0.99927888  0.23756755
   0.99958911  0.33314555  0.98752477
   0.11078631  0.55538488  0.12833075
   0.00060533  0.33329746  0.23756755
   0.33371147  0.33319474  0.98752477
   0.44467525  0.55546953  0.12833075
   0.33244239  0.33311056  0.23756755
   0.66662918  0.33330526  0.98816383
   0.77752849  0.55518533  0.12887804
   0.66654080  0.33328639  0.23827077
   0.99958729  0.66643261  0.98752477
   0.11098478  0.88878935  0.12812301
   0.00065286  0.66735889  0.23756755
   0.33341545  0.66669581  0.98741049
   0.44467830  0.88914031  0.12833075
   0.33329528  0.66662620  0.23733765
   0.66667338  0.66611511  0.98752477
   0.77807304  0.88901107  0.12812301
   0.66656880  0.66735534  0.23756755
   0.11112166  0.22212657  0.03248500
   0.22217412  0.11104216  0.18905835
   0.44434592  0.22219754  0.03324496
   0.55515454  0.11072961  0.19034037
   0.77781252  0.22218153  0.03324496
   0.88894538  0.11087814  0.18905835
   0.11110198  0.55552469  0.03268504
   0.22252449  0.44481237  0.18899263
   0.44449857  0.55551236  0.03268504
   0.55530141  0.44454673  0.19034037
   0.77777341  0.55561056  0.03324496
   0.88903522  0.44466041  0.19034037
   0.11105402  0.88900361  0.03248500
   0.22245718  0.77774485  0.18899263
   0.44451593  0.88896896  0.03268504
   0.55529486  0.77762066  0.18899263
   0.77763728  0.88879115  0.03248500
   0.88894771  0.77800581  0.18905835
   0.26882524  0.13595361  0.36408064
   0.46694637  0.13332005  0.36342065
   0.66721534  0.13332609  0.36342065
   0.86754338  0.13442470  0.36446190
   0.06560552  0.33249202  0.36307308
   0.26640362  0.33184944  0.36307308
   0.46805191  0.33451750  0.36342065
   0.66680380  0.33337281  0.36267777
   0.86642902  0.33357032  0.36342065
   0.06670424  0.53286577  0.36245125
   0.26664621  0.53316823  0.36394137
   0.46625924  0.53314103  0.36245125
   0.66669272  0.53339977  0.36342065
   0.86664852  0.53325207  0.36342065
   0.06663993  0.73296707  0.36307308
   0.26669533  0.73332480  0.36394137
   0.46657273  0.73332581  0.36394137
   0.66690055  0.73369921  0.36307308
   0.86542092  0.73183328  0.36446190
   0.06405864  0.93119367  0.36262586
   0.26625007  0.93381810  0.36307308
   0.46663617  0.93333206  0.36245125
   0.66695689  0.93345753  0.36307308
   0.86820025  0.93364321  0.36278423
   0.33421913  0.06739053  0.36469912
   0.53403031  0.06675902  0.36230937
   0.73455947  0.06687991  0.36469912
   0.93713249  0.06974931  0.36339708
   0.13034402  0.26295528  0.36300556
   0.33548159  0.26878535  0.36469912
   0.53378435  0.26696137  0.36320856
   0.73353973  0.26659452  0.36320856
   0.93312350  0.26687488  0.36469912
   0.13322341  0.46556707  0.36284393
   0.33223055  0.46563181  0.36284393
   0.53375214  0.46732423  0.36230937
   0.73339637  0.46669994  0.36320856
   0.93336375  0.46650261  0.36230937
   0.13332161  0.66599626  0.36284393
   0.33326891  0.66642613  0.36583038
   0.53322136  0.66675495  0.36284393
   0.73268860  0.66624341  0.36469912
   0.93299860  0.66614965  0.36469912
   0.13264926  0.86577986  0.36243149
   0.33324258  0.86672885  0.36284393
   0.53355271  0.86669824  0.36284393
   0.73445904  0.86779536  0.36243149
   0.93117146  0.86443001  0.36323585
   0.06670015  0.13335557  0.36303801
   0.13022679  0.06982417  0.36258379
 
 position of ions in cartesian coordinates  (Angst):
  12.50577353  0.00071430 26.25819515
   2.08440086  1.20509247  3.40807219
   0.00295114 -0.00122132  6.31743865
   2.08971998 -3.60824172 26.26815892
   4.17274285 -2.40829722  3.42815586
   8.32823553  7.22245631  6.31929689
   4.17275243 -7.21523628 26.26815892
   6.25299334 -6.01254682  3.42815586
  10.41705648  3.60337692  6.31929689
   8.33391353 -7.21820656 26.26815892
   4.16573023  4.81541792  3.41359796
   2.08797526  3.60336663  6.31929689
   4.17032653 -0.00559662 26.26815892
   6.25414821  1.20000563  3.41359796
   4.16186426  0.00723697  6.31929689
   6.25283293 -3.61020961 26.28515791
   8.33378323 -2.40818418  3.42815586
   6.25216226 -3.60945659  6.33800250
  10.41802710 -3.60837658 26.26815892
   6.25183042  8.42435027  3.40807219
   4.17723975  7.22104929  6.31929689
   6.25393861  3.60973771 26.26511916
   8.34069177  4.81393884  3.41359796
   6.25275186  3.61028536  6.31318152
   8.33425014 -0.00604668 26.26815892
  10.42468186  1.20156252  3.40807219
   8.34135160  0.00851895  6.31929689
   2.08388216  1.20228692  0.86410092
   2.08368236 -1.20366298  5.02895199
   4.16805815 -2.40607457  0.88431583
   4.16393528 -4.81353728  5.06305394
   6.25320568 -6.01800280  0.88431583
   6.25213928 -8.42719528  5.02895199
   4.16857850  4.81351328  0.86942200
   4.17301949  2.40758538  5.02720398
   6.25331126  1.20238302  0.86942200
   6.25229326 -1.19957674  5.06305394
   8.33797384 -2.40623133  0.88431583
   8.33992269 -4.81299436  5.06305394
   6.25360331  8.42592097  0.86410092
   6.25450622  6.01428438  5.02720398
   8.33860494  4.81384164  0.86942200
   8.33504452  2.40799614  5.02720398
  10.42058173  1.20390026  0.86410092
  10.42386528 -1.20160442  5.02895199
   2.53118042 -1.43912390  9.68454503
   3.75361172 -3.61348476  9.66698941
   5.00597999 -5.78251941  9.66698941
   6.26554977 -7.94036028  9.69468650
   2.48940062  2.89063010  9.65774405
   3.74102173  0.70883934  9.65774405
   5.01866146 -1.44630253  9.66698941
   6.25434730 -3.61136914  9.64722858
   7.50388738 -5.77135762  9.66698941
   3.74925687  5.04896499  9.64120337
   5.00143401  2.88668252  9.68084046
   6.24949262  0.72439224  9.64120337
   7.50446983 -1.44368723  9.66698941
   8.75391842 -3.61099509  9.66698941
   5.00013677  7.21694552  9.65774405
   6.25336877  5.05403308  9.68084046
   7.50325701  2.88918507  9.68084046
   8.75829049  0.72349200  9.65774405
   9.98801845 -1.44687902  9.69468650
   6.22355443  9.39188253  9.64584792
   7.50431772  7.23038556  9.65774405
   8.75434139  5.05475252  9.64120337
  10.00778008  2.88645101  9.65774405
  11.26736485  0.70880844  9.65006040
   2.51136278 -2.89000311  9.70099665
   3.75688164 -5.06098469  9.63742922
   5.01159509 -7.23159352  9.70099665
   6.29627645 -9.39457040  9.66636220
   2.45939610  1.43630384  9.65594795
   3.77862795 -0.72238264  9.70099665
   5.00725748 -2.88994217  9.66134775
   6.25408242 -5.05745290  9.66134775
   7.50388137 -7.21609514  9.70099665
   3.74438234  3.59959242  9.65164864
   4.98922713  1.44486031  9.65164864
   6.25997371 -0.71947639  9.63742922
   7.50449372 -2.88857151  9.66134775
   8.75370434 -5.05654235  9.63742922
   4.99832875  5.76936415  9.65164864
   6.25133588  3.60840396  9.73108823
   7.50374334  1.44629362  9.65164864
   8.74786167 -0.71966346  9.70099665
   9.99986248 -2.89022346  9.70099665
   6.24341982  7.94048938  9.64067772
   7.50371282  5.77815481  9.65164864
   8.75610930  3.60827745  9.65164864
  10.01928590  1.44415697  9.64067772
  11.22833207 -0.72287227  9.66207356
   1.25099699  0.72194040  9.65681107
   1.25096729 -0.65421679  9.64472895
 


--------------------------------------------------------------------------------------------------------


 k-point  1 :   0.5000 0.0000 0.0000  plane waves:   78052
 k-point  2 :   0.4737 0.0000 0.0000  plane waves:   78038
 k-point  3 :   0.4474 0.0000 0.0000  plane waves:   78046
 k-point  4 :   0.4211 0.0000 0.0000  plane waves:   78068
 k-point  5 :   0.3947 0.0000 0.0000  plane waves:   78060
 k-point  6 :   0.3684 0.0000 0.0000  plane waves:   78068
 k-point  7 :   0.3421 0.0000 0.0000  plane waves:   78088
 k-point  8 :   0.3158 0.0000 0.0000  plane waves:   78124
 k-point  9 :   0.2895 0.0000 0.0000  plane waves:   78100
 k-point 10 :   0.2632 0.0000 0.0000  plane waves:   78087
 k-point 11 :   0.2368 0.0000 0.0000  plane waves:   78111
 k-point 12 :   0.2105 0.0000 0.0000  plane waves:   78085
 k-point 13 :   0.1842 0.0000 0.0000  plane waves:   78093
 k-point 14 :   0.1579 0.0000 0.0000  plane waves:   78133
 k-point 15 :   0.1316 0.0000 0.0000  plane waves:   78147
 k-point 16 :   0.1053 0.0000 0.0000  plane waves:   78145
 k-point 17 :   0.0789 0.0000 0.0000  plane waves:   78183
 k-point 18 :   0.0526 0.0000 0.0000  plane waves:   78163
 k-point 19 :   0.0263 0.0000 0.0000  plane waves:   78209
 k-point 20 :   0.0000 0.0000 0.0000  plane waves:   78165
 k-point 21 :   0.0000 0.0000 0.0000  plane waves:   78165
 k-point 22 :   0.0175 0.0175 0.0000  plane waves:   78201
 k-point 23 :   0.0351 0.0351 0.0000  plane waves:   78181
 k-point 24 :   0.0526 0.0526 0.0000  plane waves:   78183
 k-point 25 :   0.0702 0.0702 0.0000  plane waves:   78163
 k-point 26 :   0.0877 0.0877 0.0000  plane waves:   78135
 k-point 27 :   0.1053 0.1053 0.0000  plane waves:   78131
 k-point 28 :   0.1228 0.1228 0.0000  plane waves:   78103
 k-point 29 :   0.1404 0.1403 0.0000  plane waves:   78067
 k-point 30 :   0.1579 0.1579 0.0000  plane waves:   78075
 k-point 31 :   0.1754 0.1754 0.0000  plane waves:   78103
 k-point 32 :   0.1930 0.1930 0.0000  plane waves:   78090
 k-point 33 :   0.2105 0.2105 0.0000  plane waves:   78080
 k-point 34 :   0.2281 0.2281 0.0000  plane waves:   78094
 k-point 35 :   0.2456 0.2456 0.0000  plane waves:   78088
 k-point 36 :   0.2632 0.2632 0.0000  plane waves:   78092
 k-point 37 :   0.2807 0.2807 0.0000  plane waves:   78088
 k-point 38 :   0.2982 0.2982 0.0000  plane waves:   78100
 k-point 39 :   0.3158 0.3158 0.0000  plane waves:   78064
 k-point 40 :   0.3333 0.3333 0.0000  plane waves:   78114
 k-point 41 :   0.3333 0.3333 0.0000  plane waves:   78114
 k-point 42 :   0.3421 0.3158 0.0000  plane waves:   78110
 k-point 43 :   0.3509 0.2982 0.0000  plane waves:   78060
 k-point 44 :   0.3596 0.2807 0.0000  plane waves:   78086
 k-point 45 :   0.3684 0.2632 0.0000  plane waves:   78082
 k-point 46 :   0.3772 0.2456 0.0000  plane waves:   78100
 k-point 47 :   0.3860 0.2281 0.0000  plane waves:   78090
 k-point 48 :   0.3947 0.2105 0.0000  plane waves:   78084
 k-point 49 :   0.4035 0.1930 0.0000  plane waves:   78094
 k-point 50 :   0.4123 0.1754 0.0000  plane waves:   78088
 k-point 51 :   0.4211 0.1579 0.0000  plane waves:   78072
 k-point 52 :   0.4298 0.1403 0.0000  plane waves:   78098
 k-point 53 :   0.4386 0.1228 0.0000  plane waves:   78084
 k-point 54 :   0.4474 0.1053 0.0000  plane waves:   78058
 k-point 55 :   0.4561 0.0877 0.0000  plane waves:   78052
 k-point 56 :   0.4649 0.0702 0.0000  plane waves:   78064
 k-point 57 :   0.4737 0.0526 0.0000  plane waves:   78032
 k-point 58 :   0.4825 0.0351 0.0000  plane waves:   78042
 k-point 59 :   0.4912 0.0175 0.0000  plane waves:   78040
 k-point 60 :   0.5000 0.0000 0.0000  plane waves:   78052

 maximum and minimum number of plane-waves per node :      4917     4862

 maximum number of plane-waves:     78209
 maximum index in each direction: 
   IXMAX=   21   IYMAX=   21   IZMAX=   46
   IXMIN=  -22   IYMIN=  -21   IZMIN=  -46


 parallel 3D FFT for wavefunctions:
    minimum data exchange during FFTs selected (reduces bandwidth)
 parallel 3D FFT for charge:
    minimum data exchange during FFTs selected (reduces bandwidth)


 total amount of memory used by VASP MPI-rank0   844824. kBytes
=======================================================================

   base      :      30000. kBytes
   nonl-proj :     160197. kBytes
   fftplans  :      27360. kBytes
   grid      :      17735. kBytes
   one-center:         48. kBytes
   wavefun   :     609484. kBytes
 
     INWAV:  cpu time    0.0000: real time    0.0001
 initial charge density was supplied:
 number of electron     415.9999998 magnetization 
 keeping initial charge density in first step


--------------------------------------------------------------------------------------------------------


 Maximum index for augmentation-charges         6163 (set IRDMAX)


--------------------------------------------------------------------------------------------------------


 First call to EWALD:  gamma=   0.116
 Maximum number of real-space cells 4x 4x 2
 Maximum number of reciprocal cells 2x 2x 4

    FEWALD:  cpu time    0.0120: real time    0.0108


--------------------------------------- Iteration      1(   1)  ---------------------------------------


    POTLOK:  cpu time    0.3280: real time    0.3283
    SETDIJ:  cpu time    0.5480: real time    0.5512
     EDDAV:  cpu time 1136.0280: real time 1143.3960
       DOS:  cpu time    0.0840: real time    0.0819
    --------------------------------------------
      LOOP:  cpu time 1136.9880: real time 1144.3574

 eigenvalue-minimisations  : 31116
 total energy-change (2. order) : 0.2867827E+04  (-0.1369788E+05)
 number of electron     415.9999998 magnetization 
 augmentation part      415.9999998 magnetization 

 Free energy of the ion-electron system (eV)
  ---------------------------------------------------
  alpha Z        PSCENC =       303.73951550
  Ewald energy   TEWEN  =     61193.92601589
  -Hartree energ DENC   =    -76288.33330970
  -exchange      EXHF   =         0.00000000
  -V(xc)+E(xc)   XCENC  =      -255.26924444
  PAW double counting   =      9991.79661239    -8624.52508652
  entropy T*S    EENTRO =         0.00007397
  eigenvalues    EBANDS =       289.09321227
  atomic energy  EATOM  =     16257.39878016
  Solvation  Ediel_sol  =         0.00000000
  ---------------------------------------------------
  free energy    TOTEN  =      2867.82656952 eV

  energy without entropy =     2867.82649555  energy(sigma->0) =     2867.82654486


--------------------------------------------------------------------------------------------------------




--------------------------------------- Iteration      1(   2)  ---------------------------------------


     EDDAV:  cpu time 1516.8160: real time 1520.9855
       DOS:  cpu time    0.0840: real time    0.0825
    --------------------------------------------
      LOOP:  cpu time 1516.9000: real time 1521.0680

 eigenvalue-minimisations  : 44170
 total energy-change (2. order) :-0.2879867E+04  (-0.2732998E+04)
 number of electron     415.9999998 magnetization 
 augmentation part      415.9999998 magnetization 

 Free energy of the ion-electron system (eV)
  ---------------------------------------------------
  alpha Z        PSCENC =       303.73951550
  Ewald energy   TEWEN  =     61193.92601589
  -Hartree energ DENC   =    -76288.33330970
  -exchange      EXHF   =         0.00000000
  -V(xc)+E(xc)   XCENC  =      -255.26924444
  PAW double counting   =      9991.79661239    -8624.52508652
  entropy T*S    EENTRO =        -0.00029247
  eigenvalues    EBANDS =     -2590.77356124
  atomic energy  EATOM  =     16257.39878016
  Solvation  Ediel_sol  =         0.00000000
  ---------------------------------------------------
  free energy    TOTEN  =       -12.04057042 eV

  energy without entropy =      -12.04027796  energy(sigma->0) =      -12.04047294


--------------------------------------------------------------------------------------------------------




--------------------------------------- Iteration      1(   3)  ---------------------------------------


     EDDAV:  cpu time 1296.5040: real time 1300.3541
       DOS:  cpu time    0.0840: real time    0.0853
    --------------------------------------------
      LOOP:  cpu time 1296.5880: real time 1300.4394

 eigenvalue-minimisations  : 36584
 total energy-change (2. order) :-0.5568699E+03  (-0.5353631E+03)
 number of electron     415.9999998 magnetization 
 augmentation part      415.9999998 magnetization 

 Free energy of the ion-electron system (eV)
  ---------------------------------------------------
  alpha Z        PSCENC =       303.73951550
  Ewald energy   TEWEN  =     61193.92601589
  -Hartree energ DENC   =    -76288.33330970
  -exchange      EXHF   =         0.00000000
  -V(xc)+E(xc)   XCENC  =      -255.26924444
  PAW double counting   =      9991.79661239    -8624.52508652
  entropy T*S    EENTRO =        -0.00043665
  eigenvalues    EBANDS =     -3147.64328478
  atomic energy  EATOM  =     16257.39878016
  Solvation  Ediel_sol  =         0.00000000
  ---------------------------------------------------
  free energy    TOTEN  =      -568.91043816 eV

  energy without entropy =     -568.91000150  energy(sigma->0) =     -568.91029261


--------------------------------------------------------------------------------------------------------




--------------------------------------- Iteration      1(   4)  ---------------------------------------


     EDDAV:  cpu time 1330.8560: real time 1334.9066
       DOS:  cpu time    0.0840: real time    0.0823
    --------------------------------------------
      LOOP:  cpu time 1330.9400: real time 1334.9889

 eigenvalue-minimisations  : 37738
 total energy-change (2. order) :-0.3082441E+02  (-0.3061282E+02)
 number of electron     415.9999998 magnetization 
 augmentation part      415.9999998 magnetization 

 Free energy of the ion-electron system (eV)
  ---------------------------------------------------
  alpha Z        PSCENC =       303.73951550
  Ewald energy   TEWEN  =     61193.92601589
  -Hartree energ DENC   =    -76288.33330970
  -exchange      EXHF   =         0.00000000
  -V(xc)+E(xc)   XCENC  =      -255.26924444
  PAW double counting   =      9991.79661239    -8624.52508652
  entropy T*S    EENTRO =         0.00386497
  eigenvalues    EBANDS =     -3178.47199194
  atomic energy  EATOM  =     16257.39878016
  Solvation  Ediel_sol  =         0.00000000
  ---------------------------------------------------
  free energy    TOTEN  =      -599.73484370 eV

  energy without entropy =     -599.73870867  energy(sigma->0) =     -599.73613202


--------------------------------------------------------------------------------------------------------




--------------------------------------- Iteration      1(   5)  ---------------------------------------


     EDDAV:  cpu time 1411.7680: real time 1416.0578
       DOS:  cpu time    0.0840: real time    0.0823
    --------------------------------------------
      LOOP:  cpu time 1411.8520: real time 1416.1401

 eigenvalue-minimisations  : 40564
 total energy-change (2. order) :-0.8631283E+00  (-0.8617440E+00)
 number of electron     415.9999998 magnetization 
 augmentation part      415.9999998 magnetization 

 Free energy of the ion-electron system (eV)
  ---------------------------------------------------
  alpha Z        PSCENC =       303.73951550
  Ewald energy   TEWEN  =     61193.92601589
  -Hartree energ DENC   =    -76288.33330970
  -exchange      EXHF   =         0.00000000
  -V(xc)+E(xc)   XCENC  =      -255.26924444
  PAW double counting   =      9991.79661239    -8624.52508652
  entropy T*S    EENTRO =         0.00376115
  eigenvalues    EBANDS =     -3179.33501640
  atomic energy  EATOM  =     16257.39878016
  Solvation  Ediel_sol  =         0.00000000
  ---------------------------------------------------
  free energy    TOTEN  =      -600.59797198 eV

  energy without entropy =     -600.60173313  energy(sigma->0) =     -600.59922570


--------------------------------------------------------------------------------------------------------




--------------------------------------- Iteration      1(   6)  ---------------------------------------


    EDDIAG:  cpu time   84.1240: real time   84.2981
  RMM-DIIS:  cpu time  564.4240: real time  567.1571
    ORTHCH:  cpu time   18.4040: real time   18.4330
       DOS:  cpu time    0.1040: real time    0.1041
    --------------------------------------------
      LOOP:  cpu time  667.0560: real time  669.9924

 eigenvalue-minimisations  : 32315
 total energy-change (2. order) :-0.2072393E-01  (-0.2072392E-01)
 number of electron     415.9999998 magnetization 
 augmentation part      415.9999998 magnetization 

 Free energy of the ion-electron system (eV)
  ---------------------------------------------------
  alpha Z        PSCENC =       303.73951550
  Ewald energy   TEWEN  =     61193.92601589
  -Hartree energ DENC   =    -76288.33330970
  -exchange      EXHF   =         0.00000000
  -V(xc)+E(xc)   XCENC  =      -255.26924444
  PAW double counting   =      9991.79661239    -8624.52508652
  entropy T*S    EENTRO =         0.00375759
  eigenvalues    EBANDS =     -3179.35573677
  atomic energy  EATOM  =     16257.39878016
  Solvation  Ediel_sol  =         0.00000000
  ---------------------------------------------------
  free energy    TOTEN  =      -600.61869591 eV

  energy without entropy =     -600.62245349  energy(sigma->0) =     -600.61994843


--------------------------------------------------------------------------------------------------------




--------------------------------------- Iteration      1(   7)  ---------------------------------------


    EDDIAG:  cpu time   81.9360: real time   82.5237
  RMM-DIIS:  cpu time  805.9840: real time  809.2645
    ORTHCH:  cpu time   18.5800: real time   18.9373
       DOS:  cpu time    0.0920: real time    0.0916
    --------------------------------------------
      LOOP:  cpu time  906.5920: real time  910.8171

 eigenvalue-minimisations  : 46290
 total energy-change (2. order) :-0.3220504E-02  (-0.3222602E-02)
 number of electron     415.9999998 magnetization 
 augmentation part      415.9999998 magnetization 

 Free energy of the ion-electron system (eV)
  ---------------------------------------------------
  alpha Z        PSCENC =       303.73951550
  Ewald energy   TEWEN  =     61193.92601589
  -Hartree energ DENC   =    -76288.33330970
  -exchange      EXHF   =         0.00000000
  -V(xc)+E(xc)   XCENC  =      -255.26924444
  PAW double counting   =      9991.79661239    -8624.52508652
  entropy T*S    EENTRO =         0.00375659
  eigenvalues    EBANDS =     -3179.35895628
  atomic energy  EATOM  =     16257.39878016
  Solvation  Ediel_sol  =         0.00000000
  ---------------------------------------------------
  free energy    TOTEN  =      -600.62191641 eV

  energy without entropy =     -600.62567300  energy(sigma->0) =     -600.62316861


--------------------------------------------------------------------------------------------------------




--------------------------------------- Iteration      1(   8)  ---------------------------------------


    EDDIAG:  cpu time   81.9680: real time   82.4557
  RMM-DIIS:  cpu time  734.5520: real time  739.0952
    ORTHCH:  cpu time   18.6880: real time   18.8593
       DOS:  cpu time    0.0800: real time    0.0781
    --------------------------------------------
      LOOP:  cpu time  835.2880: real time  840.4883

 eigenvalue-minimisations  : 42062
 total energy-change (2. order) :-0.3631868E-04  (-0.6428611E-04)
 number of electron     415.9999998 magnetization 
 augmentation part      415.9999998 magnetization 

 Free energy of the ion-electron system (eV)
  ---------------------------------------------------
  alpha Z        PSCENC =       303.73951550
  Ewald energy   TEWEN  =     61193.92601589
  -Hartree energ DENC   =    -76288.33330970
  -exchange      EXHF   =         0.00000000
  -V(xc)+E(xc)   XCENC  =      -255.26924444
  PAW double counting   =      9991.79661239    -8624.52508652
  entropy T*S    EENTRO =         0.00375650
  eigenvalues    EBANDS =     -3179.35899251
  atomic energy  EATOM  =     16257.39878016
  Solvation  Ediel_sol  =         0.00000000
  ---------------------------------------------------
  free energy    TOTEN  =      -600.62195273 eV

  energy without entropy =     -600.62570923  energy(sigma->0) =     -600.62320490


--------------------------------------------------------------------------------------------------------




--------------------------------------- Iteration      1(   9)  ---------------------------------------


    EDDIAG:  cpu time   83.8760: real time   84.3962
  RMM-DIIS:  cpu time  578.4080: real time  582.0768
    ORTHCH:  cpu time   19.0160: real time   19.0866
       DOS:  cpu time    0.0920: real time    0.0916
    --------------------------------------------
      LOOP:  cpu time  681.3920: real time  685.6512

 eigenvalue-minimisations  : 32953
 total energy-change (2. order) :-0.1462755E-05  (-0.2446074E-05)
 number of electron     415.9999998 magnetization 
 augmentation part      415.9999998 magnetization 

 Free energy of the ion-electron system (eV)
  ---------------------------------------------------
  alpha Z        PSCENC =       303.73951550
  Ewald energy   TEWEN  =     61193.92601589
  -Hartree energ DENC   =    -76288.33330970
  -exchange      EXHF   =         0.00000000
  -V(xc)+E(xc)   XCENC  =      -255.26924444
  PAW double counting   =      9991.79661239    -8624.52508652
  entropy T*S    EENTRO =         0.00375650
  eigenvalues    EBANDS =     -3179.35899397
  atomic energy  EATOM  =     16257.39878016
  Solvation  Ediel_sol  =         0.00000000
  ---------------------------------------------------
  free energy    TOTEN  =      -600.62195419 eV

  energy without entropy =     -600.62571069  energy(sigma->0) =     -600.62320636


--------------------------------------------------------------------------------------------------------




--------------------------------------- Iteration      1(  10)  ---------------------------------------


    EDDIAG:  cpu time   83.5360: real time   83.7123
  RMM-DIIS:  cpu time  426.5600: real time  429.5964
    ORTHCH:  cpu time   18.7040: real time   18.7458
       DOS:  cpu time    0.0800: real time    0.0801
    --------------------------------------------
      LOOP:  cpu time  528.8800: real time  532.1346

 eigenvalue-minimisations  : 23615
 total energy-change (2. order) :-0.1377703E-06  (-0.1681157E-06)
 number of electron     415.9999998 magnetization 
 augmentation part      415.9999998 magnetization 

 Free energy of the ion-electron system (eV)
  ---------------------------------------------------
  alpha Z        PSCENC =       303.73951550
  Ewald energy   TEWEN  =     61193.92601589
  -Hartree energ DENC   =    -76288.33330970
  -exchange      EXHF   =         0.00000000
  -V(xc)+E(xc)   XCENC  =      -255.26924444
  PAW double counting   =      9991.79661239    -8624.52508652
  entropy T*S    EENTRO =         0.00375650
  eigenvalues    EBANDS =     -3179.35899411
  atomic energy  EATOM  =     16257.39878016
  Solvation  Ediel_sol  =         0.00000000
  ---------------------------------------------------
  free energy    TOTEN  =      -600.62195433 eV

  energy without entropy =     -600.62571083  energy(sigma->0) =     -600.62320650


--------------------------------------------------------------------------------------------------------




 average (electrostatic) potential at core
  the test charge radii are     1.0808  1.4837  0.7672  0.7089  0.6991
  (the norm of the test charge is              1.0000)
       1 -59.8648       2 -59.1494       3 -58.8204       4 -59.8657       5 -59.1547
       6 -58.8090       7 -59.8604       8 -59.1518       9 -58.8105      10 -59.8654
      11 -59.1474      12 -58.8120      13 -59.8644      14 -59.1479      15 -58.8111
      16 -59.8589      17 -59.1525      18 -58.8395      19 -59.8661      20 -59.1507
      21 -58.8114      22 -59.8690      23 -59.1476      24 -58.7979      25 -59.8595
      26 -59.1491      27 -58.8105      28 -44.4292      29 -43.7946      30 -44.4339
      31 -43.8049      32 -44.4295      33 -43.7867      34 -44.4324      35 -43.7907
      36 -44.4307      37 -43.8093      38 -44.4300      39 -43.8081      40 -44.4312
      41 -43.7865      42 -44.4309      43 -43.7895      44 -44.4205      45 -43.7906
      46 -31.8411      47 -32.6229      48 -32.7801      49 -32.9850      50 -32.9927
      51 -32.9189      52 -32.6483      53 -32.7242      54 -32.7945      55 -32.7811
      56 -32.7745      57 -32.7908      58 -32.7062      59 -32.7141      60 -32.6262
      61 -32.6992      62 -32.7122      63 -32.7933      64 -32.6400      65 -31.8511
      66 -32.5870      67 -32.7067      68 -32.7860      69 -32.9289      70 -68.6072
      71 -68.8270      72 -68.9544      73 -69.8235      74 -69.8120      75 -68.7500
      76 -68.7968      77 -68.8688      78 -69.0223      79 -68.9636      80 -68.9225
      81 -68.8515      82 -68.8487      83 -68.8847      84 -68.8112      85 -68.8230
      86 -68.8590      87 -68.8230      88 -68.7856      89 -68.6241      90 -68.7699
      91 -68.8442      92 -68.9317      93 -68.7682      94 -56.6691      95 -53.0375
 
 
 
 E-fermi :  -1.1563     XC(G=0):  -4.7870     alpha+bet : -4.3522


 k-point     1 :       0.5000    0.0000    0.0000
  band No.  band energies     occupation 
      1     -20.0185      2.00000
      2     -19.1591      2.00000
      3     -18.9435      2.00000
      4     -18.7144      2.00000
      5     -18.4047      2.00000
      6     -18.2003      2.00000
      7     -18.0649      2.00000
      8     -17.9475      2.00000
      9     -17.7722      2.00000
     10     -17.7125      2.00000
     11     -17.3198      2.00000
     12     -17.1315      2.00000
     13     -17.0908      2.00000
     14     -16.9565      2.00000
     15     -16.7146      2.00000
     16     -16.4709      2.00000
     17     -16.4167      2.00000
     18     -16.3611      2.00000
     19     -16.3207      2.00000
     20     -16.2794      2.00000
     21     -16.2256      2.00000
     22     -16.1738      2.00000
     23     -15.9006      2.00000
     24     -15.7840      2.00000
     25     -14.6589      2.00000
     26     -14.6578      2.00000
     27     -14.4012      2.00000
     28     -14.4010      2.00000
     29     -14.0991      2.00000
     30     -14.0985      2.00000
     31     -14.0958      2.00000
     32     -14.0957      2.00000
     33     -14.0931      2.00000
     34     -14.0910      2.00000
     35     -14.0902      2.00000
     36     -13.8491      2.00000
     37     -13.8479      2.00000
     38     -13.6694      2.00000
     39     -13.5620      2.00000
     40     -13.5607      2.00000
     41     -13.5606      2.00000
     42     -13.5597      2.00000
     43     -13.5558      2.00000
     44     -13.2361      2.00000
     45     -13.2307      2.00000
     46     -13.1048      2.00000
     47     -13.1027      2.00000
     48     -13.0016      2.00000
     49     -12.9899      2.00000
     50     -12.9888      2.00000
     51     -12.9854      2.00000
     52     -12.9805      2.00000
     53     -11.1977      2.00000
     54     -10.4638      2.00000
     55     -10.2813      2.00000
     56     -10.2400      2.00000
     57     -10.1463      2.00000
     58      -9.8647      2.00000
     59      -9.8177      2.00000
     60      -9.6307      2.00000
     61      -9.4785      2.00000
     62      -9.4325      2.00000
     63      -9.3871      2.00000
     64      -8.9776      2.00000
     65      -8.8948      2.00000
     66      -8.8044      2.00000
     67      -8.7504      2.00000
     68      -8.6180      2.00000
     69      -8.4219      2.00000
     70      -7.9508      2.00000
     71      -7.8135      2.00000
     72      -7.5809      2.00000
     73      -7.5192      2.00000
     74      -7.4394      2.00000
     75      -7.4384      2.00000
     76      -7.4376      2.00000
     77      -7.4350      2.00000
     78      -7.3817      2.00000
     79      -7.2903      2.00000
     80      -7.2143      2.00000
     81      -7.0991      2.00000
     82      -7.0968      2.00000
     83      -7.0577      2.00000
     84      -7.0096      2.00000
     85      -6.9735      2.00000
     86      -6.9035      2.00000
     87      -6.8791      2.00000
     88      -6.8687      2.00000
     89      -6.8299      2.00000
     90      -6.7621      2.00000
     91      -6.7540      2.00000
     92      -6.7534      2.00000
     93      -6.7485      2.00000
     94      -6.7460      2.00000
     95      -6.6677      2.00000
     96      -6.5713      2.00000
     97      -6.3411      2.00000
     98      -6.3320      2.00000
     99      -6.2403      2.00000
    100      -6.2069      2.00000
    101      -6.1735      2.00000
    102      -6.0101      2.00000
    103      -6.0011      2.00000
    104      -5.9830      2.00000
    105      -5.8930      2.00000
    106      -5.8645      2.00000
    107      -5.7835      2.00000
    108      -5.5928      2.00000
    109      -5.5305      2.00000
    110      -5.3214      2.00000
    111      -5.2859      2.00000
    112      -5.2727      2.00000
    113      -5.2714      2.00000
    114      -5.2544      2.00000
    115      -5.1951      2.00000
    116      -5.1339      2.00000
    117      -5.1263      2.00000
    118      -5.0701      2.00000
    119      -5.0326      2.00000
    120      -5.0122      2.00000
    121      -4.9968      2.00000
    122      -4.9836      2.00000
    123      -4.9804      2.00000
    124      -4.9697      2.00000
    125      -4.9367      2.00000
    126      -4.8617      2.00000
    127      -4.8344      2.00000
    128      -4.7875      2.00000
    129      -4.7852      2.00000
    130      -4.7847      2.00000
    131      -4.7753      2.00000
    132      -4.7225      2.00000
    133      -4.7216      2.00000
    134      -4.6847      2.00000
    135      -4.6034      2.00000
    136      -4.5029      2.00000
    137      -4.3871      2.00000
    138      -4.3806      2.00000
    139      -4.3789      2.00000
    140      -4.3722      2.00000
    141      -4.1537      2.00000
    142      -4.1498      2.00000
    143      -4.1439      2.00000
    144      -4.1415      2.00000
    145      -4.1349      2.00000
    146      -4.1082      2.00000
    147      -4.0960      2.00000
    148      -3.9910      2.00000
    149      -3.9886      2.00000
    150      -3.9789      2.00000
    151      -3.9507      2.00000
    152      -3.9258      2.00000
    153      -3.8425      2.00000
    154      -3.8224      2.00000
    155      -3.8100      2.00000
    156      -3.8084      2.00000
    157      -3.7919      2.00000
    158      -3.7169      2.00000
    159      -3.7133      2.00000
    160      -3.7045      2.00000
    161      -3.5739      2.00000
    162      -3.4812      2.00000
    163      -3.4517      2.00000
    164      -3.4483      2.00000
    165      -3.4344      2.00000
    166      -3.4285      2.00000
    167      -3.3837      2.00000
    168      -3.3514      2.00000
    169      -3.3445      2.00000
    170      -3.3320      2.00000
    171      -3.3260      2.00000
    172      -3.3206      2.00000
    173      -3.0611      2.00000
    174      -2.9988      2.00000
    175      -2.9275      2.00000
    176      -2.8901      2.00000
    177      -2.8827      2.00000
    178      -2.8165      2.00000
    179      -2.8067      2.00000
    180      -2.7841      2.00000
    181      -2.7669      2.00000
    182      -2.7579      2.00000
    183      -2.7398      2.00000
    184      -2.7110      2.00000
    185      -2.6505      2.00000
    186      -2.6276      2.00000
    187      -2.5770      2.00000
    188      -2.5726      2.00000
    189      -2.5489      2.00000
    190      -2.5390      2.00000
    191      -2.5084      2.00000
    192      -2.4390      2.00000
    193      -2.4029      2.00000
    194      -2.3251      2.00000
    195      -2.2676      2.00000
    196      -2.2351      2.00000
    197      -2.1385      2.00000
    198      -2.0767      2.00000
    199      -2.0664      2.00000
    200      -2.0376      2.00000
    201      -1.9711      2.00000
    202      -1.9672      2.00000
    203      -1.9596      2.00000
    204      -1.9287      2.00000
    205      -1.8706      2.00000
    206      -1.8603      2.00000
    207      -1.7918      2.00000
    208      -1.2142      2.06944
    209      -0.2085     -0.00000
    210      -0.2028     -0.00000
    211      -0.1944     -0.00000
    212       0.0986     -0.00000
    213       0.3666      0.00000
    214       0.3671      0.00000
    215       0.3952      0.00000
    216       0.3980      0.00000
    217       0.4064      0.00000
    218       0.4066      0.00000
    219       0.6508      0.00000
    220       0.6588      0.00000
    221       0.6609      0.00000
    222       0.6634      0.00000
    223       0.6640      0.00000
    224       0.6684      0.00000
    225       0.8998      0.00000
    226       0.9002      0.00000
    227       1.2777      0.00000
    228       1.8919      0.00000
    229       1.8938      0.00000
    230       1.8941      0.00000
    231       1.8961      0.00000
    232       1.9888      0.00000
    233       1.9928      0.00000
    234       2.0742      0.00000
    235       2.0771      0.00000
    236       2.3491      0.00000
    237       2.4944      0.00000
    238       2.5109      0.00000
    239       2.5242      0.00000
    240       2.5277      0.00000
    241       2.8411      0.00000
    242       2.9388      0.00000
    243       2.9396      0.00000
    244       2.9424      0.00000
    245       2.9512      0.00000
    246       3.1395      0.00000
    247       3.2011      0.00000
    248       3.2232      0.00000
    249       3.2410      0.00000
    250       3.2762      0.00000
    251       3.2919      0.00000
    252       3.4971      0.00000
    253       3.5220      0.00000
    254       3.5985      0.00000
    255       3.6384      0.00000
    256       3.6778      0.00000

 k-point     2 :       0.4737    0.0000    0.0000
  band No.  band energies     occupation 
      1     -20.0186      2.00000
[...]
   -.152E+01 0.384E+00 -.212E+03   0.159E+01 -.217E+00 0.212E+03   -.719E-01 -.167E+00 -.599E-01   0.154E-02 -.103E-01 0.393E-01
   -.717E+00 -.516E+00 -.222E+03   0.832E+00 0.533E+00 0.222E+03   -.126E+00 0.292E-02 0.484E-01   0.697E-02 -.150E-01 0.392E-01
   0.661E+00 -.204E+01 -.212E+03   -.598E+00 0.196E+01 0.212E+03   -.716E-01 0.704E-01 -.591E-01   -.121E-02 0.161E-01 0.357E-01
   0.411E+00 0.154E+01 -.219E+03   -.397E+00 -.151E+01 0.219E+03   -.147E-01 -.847E-01 0.173E-01   0.187E-03 0.433E-01 0.417E-01
   0.291E+00 0.616E+00 -.219E+03   -.232E+00 -.474E+00 0.219E+03   -.814E-01 -.110E+00 0.130E-01   0.211E-01 -.240E-01 0.441E-01
   -.208E+01 -.997E-01 -.218E+03   0.229E+01 0.240E+00 0.218E+03   -.256E+00 -.138E+00 -.662E-02   0.273E-01 0.559E-04 0.431E-01
   -.107E+01 -.196E+01 -.222E+03   0.109E+01 0.202E+01 0.222E+03   -.315E-01 -.620E-01 0.558E-01   0.136E-01 -.742E-02 0.400E-01
   -.861E+00 -.440E+00 -.222E+03   0.817E+00 0.450E+00 0.222E+03   0.263E-01 -.299E-02 0.570E-01   0.753E-02 -.209E-02 0.428E-01
   -.126E+01 -.283E+01 -.217E+03   0.119E+01 0.272E+01 0.217E+03   0.954E-01 0.975E-01 -.158E-01   -.106E-01 0.118E-01 0.404E-01
   -.110E+01 0.210E+01 -.225E+03   0.112E+01 -.204E+01 0.225E+03   -.382E-01 -.915E-01 0.930E-01   0.194E-01 0.238E-01 0.513E-01
   -.205E+02 -.833E+00 -.215E+03   0.230E+02 0.236E+01 0.215E+03   -.245E+01 -.153E+01 -.282E-01   0.424E-02 0.119E-01 0.457E-01
   0.973E+00 -.480E+01 -.218E+03   -.985E+00 0.505E+01 0.218E+03   -.337E-02 -.271E+00 -.947E-02   0.145E-01 0.956E-02 0.418E-01
   0.113E+01 -.906E+00 -.212E+03   -.119E+01 0.989E+00 0.212E+03   0.564E-01 -.805E-01 -.595E-01   -.743E-02 -.121E-01 0.378E-01
   0.201E+01 -.123E+00 -.217E+03   -.211E+01 0.116E+00 0.217E+03   0.113E+00 0.506E-02 -.147E-01   -.118E-01 0.405E-02 0.404E-01
   -.433E+00 -.357E+01 -.215E+03   -.189E+00 0.284E+01 0.215E+03   0.583E+00 0.741E+00 -.434E-01   0.355E-01 0.165E-02 0.597E-01
   0.850E+01 -.906E+01 -.383E+03   -.903E+01 0.990E+01 0.383E+03   0.520E+00 -.813E+00 -.892E+00   0.947E-04 -.906E-02 0.767E-01
   0.203E+01 -.169E+01 -.352E+03   -.215E+01 0.188E+01 0.351E+03   0.105E+00 -.205E+00 0.692E+00   0.706E-02 0.862E-02 0.737E-01
   0.235E+01 -.132E+01 -.382E+03   -.285E+01 0.158E+01 0.383E+03   0.494E+00 -.245E+00 -.695E+00   0.398E-02 -.140E-01 0.891E-01
   0.358E+02 -.115E+02 -.365E+03   -.417E+02 0.142E+02 0.365E+03   0.597E+01 -.274E+01 0.327E-01   0.155E-01 0.710E-02 0.101E+00
   -.352E+02 -.977E+01 -.360E+03   0.412E+02 0.125E+02 0.360E+03   -.599E+01 -.276E+01 0.121E+00   -.844E-03 0.421E-03 0.690E-01
   0.539E+01 0.618E+01 -.383E+03   -.591E+01 -.694E+01 0.383E+03   0.531E+00 0.686E+00 -.863E+00   -.171E-01 0.481E-01 0.741E-01
   0.511E+01 -.600E+00 -.364E+03   -.542E+01 0.544E+00 0.364E+03   0.356E+00 0.279E-01 0.858E-01   -.453E-01 0.130E-01 0.727E-01
   0.220E+01 -.311E+00 -.364E+03   -.238E+01 0.582E+00 0.364E+03   0.201E+00 -.215E+00 0.121E+00   -.206E-01 -.424E-01 0.744E-01
   0.138E+01 -.837E+01 -.382E+03   -.133E+01 0.927E+01 0.382E+03   -.681E-01 -.839E+00 -.723E+00   0.541E-02 -.453E-01 0.951E-01
   -.470E+01 -.138E+01 -.358E+03   0.515E+01 0.166E+01 0.358E+03   -.433E+00 -.223E+00 0.363E+00   -.103E-01 -.453E-01 0.738E-01
   -.165E+01 -.365E+00 -.358E+03   0.183E+01 0.239E+00 0.358E+03   -.133E+00 0.102E+00 0.339E+00   -.379E-01 0.137E-01 0.766E-01
   -.215E+00 -.118E+01 -.352E+03   0.277E+00 0.132E+01 0.351E+03   -.282E-01 -.161E+00 0.684E+00   -.255E-01 0.274E-01 0.685E-01
   -.136E+01 -.109E+01 -.364E+03   0.134E+01 0.111E+01 0.364E+03   0.384E-01 -.183E-01 0.103E+00   -.119E-01 0.105E-02 0.767E-01
   -.192E+01 -.202E+01 -.352E+03   0.213E+01 0.224E+01 0.351E+03   -.195E+00 -.174E+00 0.713E+00   -.743E-02 -.406E-01 0.755E-01
   -.283E+01 -.687E+00 -.359E+03   0.295E+01 0.901E+00 0.358E+03   -.146E+00 -.224E+00 0.375E+00   0.184E-01 0.224E-02 0.749E-01
   -.800E+00 -.105E+01 -.396E+03   0.835E+00 0.124E+01 0.398E+03   -.101E+00 -.117E+00 -.136E+01   0.516E-01 -.501E-01 0.847E-01
   0.440E+00 -.116E+01 -.359E+03   -.417E+00 0.982E+00 0.358E+03   -.356E-01 0.721E-01 0.388E+00   0.796E-02 0.802E-01 0.698E-01
   -.503E+00 -.366E+00 -.382E+03   0.453E+00 0.549E+00 0.383E+03   0.402E-01 -.225E+00 -.689E+00   0.492E-02 0.439E-01 0.912E-01
   -.311E+01 -.103E+01 -.382E+03   0.351E+01 0.958E+00 0.383E+03   -.441E+00 0.468E-01 -.719E+00   0.372E-01 0.894E-02 0.938E-01
   -.913E+01 -.828E+01 -.354E+03   0.961E+01 0.911E+01 0.353E+03   -.490E+00 -.817E+00 0.486E+00   0.138E-01 -.484E-02 0.803E-01
   0.538E+00 -.266E+01 -.359E+03   -.534E+00 0.313E+01 0.358E+03   0.186E-01 -.490E+00 0.354E+00   -.131E-01 0.140E-01 0.784E-01
   0.176E+01 -.999E+00 -.359E+03   -.176E+01 0.118E+01 0.358E+03   0.870E-01 -.843E-01 0.399E+00   -.600E-01 -.617E-01 0.702E-01
   0.810E+00 0.758E+00 -.353E+03   -.101E+01 -.873E+00 0.353E+03   0.195E+00 0.919E-01 0.586E+00   0.476E-02 0.181E-01 0.978E-01
   -.347E+01 0.563E+01 -.363E+03   0.399E+01 -.642E+01 0.363E+03   -.536E+00 0.749E+00 0.159E+00   0.268E-01 0.316E-01 0.952E-01
   -.110E+01 0.214E+02 -.290E+03   0.109E+01 -.283E+02 0.290E+03   0.820E-02 0.694E+01 0.634E-01   0.167E-02 0.159E-01 0.542E-01
   -.110E+01 0.496E+02 -.284E+03   0.110E+01 -.554E+02 0.284E+03   0.182E-01 0.572E+01 0.200E+00   -.168E-02 0.444E-01 0.538E-01
 -----------------------------------------------------------------------------------------------
   -.357E+00 0.430E+00 0.547E+02   -.254E-12 -.142E-12 -.307E-11   0.237E+00 -.334E+00 -.479E+02   0.108E+00 -.863E-01 -.687E+01
 
 
 POSITION                                       TOTAL-FORCE (eV/Angst)
 -----------------------------------------------------------------------------------
     12.50577      0.00071     26.25820        -0.013269      0.012134     -0.089528
      2.08440      1.20509      3.40807        -0.015002      0.012620      0.024618
      0.00295     -0.00122      6.31744        -0.002820     -0.000558     -0.014776
      2.08972     -3.60824     26.26816        -0.018289      0.010064     -0.088865
      4.17274     -2.40830      3.42816        -0.018579      0.016289      0.025112
      8.32824      7.22246      6.31930         0.014051     -0.022361     -0.000760
      4.17275     -7.21524     26.26816        -0.013029      0.001835     -0.096802
      6.25299     -6.01255      3.42816        -0.020754      0.017794      0.038490
     10.41706      3.60338      6.31930         0.028864     -0.028703     -0.005133
      8.33391     -7.21821     26.26816        -0.012950      0.013422     -0.091371
      4.16573      4.81542      3.41360        -0.022684      0.019561      0.023224
      2.08798      3.60337      6.31930         0.026256     -0.031597     -0.011405
      4.17033     -0.00560     26.26816        -0.017039      0.016114     -0.094254
      6.25415      1.20001      3.41360        -0.021085      0.013596      0.015162
      4.16186      0.00724      6.31930         0.017854     -0.006743     -0.004633
      6.25283     -3.61021     26.28516        -0.010629      0.009307     -0.108271
      8.33378     -2.40818      3.42816        -0.020896      0.017620      0.030150
      6.25216     -3.60946      6.33800         0.025617     -0.022419     -0.016056
     10.41803     -3.60838     26.26816        -0.015014      0.009496     -0.087952
      6.25183      8.42435      3.40807        -0.014119      0.014511      0.022694
      4.17724      7.22105      6.31930         0.031151     -0.018344     -0.008086
      6.25394      3.60974     26.26512        -0.016747      0.013799     -0.092558
      8.34069      4.81394      3.41360        -0.017596      0.021385      0.014457
      6.25275      3.61029      6.31318         0.025893     -0.021220     -0.006742
      8.33425     -0.00605     26.26816        -0.003337      0.015738     -0.098644
     10.42468      1.20156      3.40807        -0.028625      0.022151      0.018302
      8.34135      0.00852      6.31930         0.032988     -0.020461     -0.004879
      2.08388      1.20229      0.86410         0.009894     -0.009194     -0.085048
      2.08368     -1.20366      5.02895        -0.004237      0.001503     -0.024375
      4.16806     -2.40607      0.88432         0.009264     -0.008490     -0.088226
      4.16394     -4.81354      5.06305        -0.000130      0.001358     -0.079162
      6.25321     -6.01800      0.88432         0.013035     -0.010657     -0.088332
      6.25214     -8.42720      5.02895        -0.002578     -0.004384     -0.038385
      4.16858      4.81351      0.86942         0.012344     -0.009477     -0.083569
      4.17302      2.40759      5.02720        -0.002047      0.002340     -0.056712
      6.25331      1.20238      0.86942         0.008204     -0.005216     -0.079157
      6.25229     -1.19958      5.06305        -0.000133      0.000107     -0.081820
      8.33797     -2.40623      0.88432         0.013529     -0.010544     -0.089316
      8.33992     -4.81299      5.06305        -0.004123      0.004304     -0.086059
      6.25360      8.42592      0.86410         0.010475     -0.008210     -0.086441
      6.25451      6.01428      5.02720        -0.003222      0.000703     -0.046613
      8.33860      4.81384      0.86942         0.007016     -0.007748     -0.080681
      8.33504      2.40800      5.02720        -0.002568      0.001990     -0.055585
     10.42058      1.20390      0.86410         0.008140     -0.007307     -0.090356
     10.42387     -1.20160      5.02895         0.002626      0.003777     -0.026569
      2.53118     -1.43912      9.68455        -0.022355      0.017441      0.038813
      3.75361     -3.61348      9.66699         0.020963      0.001265      0.034799
      5.00598     -5.78252      9.66699        -0.003234     -0.013400      0.016723
      6.26555     -7.94036      9.69469         0.007763      0.010213      0.008277
      2.48940      2.89063      9.65774        -0.009116      0.006163      0.081504
      3.74102      0.70884      9.65774         0.003663      0.021712      0.080869
      5.01866     -1.44630      9.66699         0.001549     -0.006498      0.031361
      6.25435     -3.61137      9.64723        -0.001472      0.006405      0.038182
      7.50389     -5.77136      9.66699         0.000915     -0.015065      0.007866
      3.74926      5.04896      9.64120         0.000100     -0.011158      0.100253
      5.00143      2.88668      9.68084        -0.003908      0.005116     -0.017256
      6.24949      0.72439      9.64120        -0.009881      0.001606      0.100405
      7.50447     -1.44369      9.66699         0.000221     -0.008973      0.020869
      8.75392     -3.61100      9.66699        -0.000986      0.008107      0.019758
      5.00014      7.21695      9.65774        -0.018446      0.002347      0.024564
      6.25337      5.05403      9.68084         0.005464     -0.012014     -0.021005
      7.50326      2.88919      9.68084        -0.010742      0.004710     -0.016271
      8.75829      0.72349      9.65774         0.009923     -0.000780      0.005657
      9.98802     -1.44688      9.69469        -0.002334     -0.007102      0.000064
      6.22355      9.39188      9.64585         0.016918      0.008941      0.037955
      7.50432      7.23039      9.65774         0.000138     -0.012985      0.020816
      8.75434      5.05475      9.64120        -0.010722     -0.009290      0.109273
     10.00778      2.88645      9.65774         0.005675      0.002120      0.004301
     11.26736      0.70881      9.65006        -0.002796      0.020214      0.044475
      2.51136     -2.89000      9.70100        -0.011443      0.014463     -0.019307
      3.75688     -5.06098      9.63743        -0.004344     -0.007819      0.060906
      5.01160     -7.23159      9.70100        -0.004649      0.005976      0.022680
      6.29628     -9.39457      9.66636         0.005809     -0.023863     -0.002156
      2.45940      1.43630      9.65595         0.000315     -0.014121      0.012293
      3.77863     -0.72238      9.70100        -0.008677     -0.019942      0.003607
      5.00726     -2.88994      9.66135        -0.000074     -0.014755      0.058608
      6.25408     -5.05745      9.66135         0.001061      0.013314      0.068845
      7.50388     -7.21610      9.70100        -0.006561      0.014013      0.024240
      3.74438      3.59959      9.65165         0.007294      0.013537      0.059596
      4.98923      1.44486      9.65165         0.011025     -0.010180      0.047893
      6.25997     -0.71948      9.63743         0.008649      0.006475      0.052399
      7.50449     -2.88857      9.66135         0.004979     -0.002061      0.063873
      8.75370     -5.05654      9.63743         0.006556      0.007851      0.062450
      4.99833      5.76936      9.65165        -0.003938     -0.006785      0.070319
      6.25134      3.60840      9.73109        -0.014380      0.018529      0.001693
      7.50374      1.44629      9.65165        -0.004819     -0.027929      0.071641
      8.74786     -0.71966      9.70100        -0.004865      0.001015      0.035612
      9.99986     -2.89022      9.70100        -0.001021     -0.011433      0.020349
      6.24342      7.94049      9.64068         0.008348      0.011467      0.078621
      7.50371      5.77815      9.65165         0.009581     -0.005434      0.062046
      8.75611      3.60828      9.65165         0.027845      0.031999      0.078783
     10.01929      1.44416      9.64068        -0.003056     -0.005009      0.090237
     11.22833     -0.72287      9.66207         0.013034     -0.012416      0.055770
      1.25100      0.72194      9.65681         0.000550      0.033821      0.053475
      1.25097     -0.65422      9.64473         0.009781     -0.049693      0.068187
 -----------------------------------------------------------------------------------
    total drift:                               -0.011212      0.009377     -0.055450


--------------------------------------------------------------------------------------------------------



  FREE ENERGIE OF THE ION-ELECTRON SYSTEM (eV)
  ---------------------------------------------------
  free  energy   TOTEN  =      -600.62195433 eV

  energy  without entropy=     -600.62571083  energy(sigma->0) =     -600.62320650
 


--------------------------------------------------------------------------------------------------------


    POTLOK:  cpu time    0.8800: real time    0.8820


--------------------------------------------------------------------------------------------------------


     LOOP+:  cpu time11903.0240: real time11949.5329
    4ORBIT:  cpu time    0.0000: real time    0.0000
 


 total charge     
 
# of ion       s       p       d       tot
------------------------------------------
    1        1.466   2.306   0.016   3.787
    2        1.467   2.335   0.017   3.820
    3        1.473   2.303   0.017   3.793
    4        1.466   2.306   0.016   3.788
    5        1.468   2.334   0.017   3.819
    6        1.472   2.305   0.016   3.793
    7        1.466   2.306   0.016   3.787
    8        1.468   2.334   0.017   3.819
    9        1.471   2.308   0.016   3.795
   10        1.466   2.306   0.016   3.788
   11        1.468   2.334   0.017   3.819
   12        1.470   2.310   0.016   3.796
   13        1.466   2.306   0.016   3.788
   14        1.468   2.335   0.017   3.820
   15        1.471   2.307   0.016   3.794
   16        1.466   2.307   0.016   3.789
   17        1.468   2.334   0.017   3.819
   18        1.471   2.308   0.016   3.796
   19        1.466   2.306   0.016   3.788
   20        1.467   2.335   0.017   3.820
   21        1.471   2.307   0.016   3.795
   22        1.466   2.306   0.016   3.788
   23        1.468   2.335   0.017   3.820
   24        1.471   2.309   0.016   3.796
   25        1.466   2.306   0.016   3.787
   26        1.468   2.335   0.017   3.820
   27        1.471   2.308   0.016   3.795
   28        1.169   1.226   0.222   2.617
   29        1.098   1.115   0.243   2.456
   30        1.169   1.226   0.222   2.617
   31        1.100   1.115   0.242   2.457
   32        1.169   1.225   0.222   2.616
   33        1.099   1.114   0.243   2.456
   34        1.169   1.224   0.222   2.615
   35        1.099   1.118   0.244   2.460
   36        1.169   1.226   0.222   2.617
   37        1.100   1.115   0.242   2.457
   38        1.169   1.225   0.222   2.616
   39        1.100   1.115   0.242   2.457
   40        1.169   1.226   0.222   2.617
   41        1.099   1.117   0.244   2.460
   42        1.169   1.225   0.222   2.617
   43        1.099   1.118   0.244   2.461
   44        1.170   1.223   0.221   2.615
   45        1.098   1.114   0.243   2.455
   46        0.759   1.440   0.000   2.199
   47        0.748   1.433   0.000   2.180
   48        0.746   1.429   0.000   2.176
   49        0.747   1.441   0.000   2.188
   50        0.747   1.437   0.000   2.184
   51        0.740   1.417   0.000   2.157
   52        0.752   1.446   0.000   2.199
   53        0.748   1.433   0.000   2.181
   54        0.750   1.440   0.000   2.190
   55        0.746   1.429   0.000   2.176
   56        0.747   1.433   0.000   2.180
   57        0.744   1.423   0.000   2.167
   58        0.750   1.441   0.000   2.191
   59        0.749   1.436   0.000   2.185
   60        0.747   1.431   0.000   2.178
   61        0.746   1.429   0.000   2.175
   62        0.747   1.432   0.000   2.179
   63        0.744   1.420   0.000   2.164
   64        0.752   1.448   0.000   2.200
   65        0.759   1.438   0.000   2.197
   66        0.744   1.417   0.000   2.161
   67        0.746   1.430   0.000   2.176
   68        0.747   1.431   0.000   2.178
   69        0.740   1.418   0.000   2.158
   70        1.232   2.774   0.000   4.006
   71        1.231   2.779   0.000   4.010
   72        1.231   2.780   0.000   4.010
   73        1.223   2.747   0.000   3.970
   74        1.223   2.749   0.000   3.972
   75        1.237   2.786   0.000   4.023
   76        1.232   2.782   0.000   4.014
   77        1.232   2.783   0.000   4.014
   78        1.233   2.791   0.000   4.024
   79        1.231   2.780   0.000   4.010
   80        1.230   2.775   0.000   4.005
   81        1.233   2.785   0.000   4.018
   82        1.232   2.783   0.000   4.015
   83        1.232   2.783   0.000   4.014
   84        1.231   2.780   0.000   4.012
   85        1.231   2.780   0.000   4.012
   86        1.231   2.778   0.000   4.009
   87        1.233   2.787   0.000   4.020
   88        1.232   2.783   0.000   4.015
   89        1.231   2.774   0.000   4.006
   90        1.231   2.775   0.000   4.006
   91        1.231   2.779   0.000   4.010
   92        1.230   2.775   0.000   4.005
   93        1.236   2.786   0.000   4.022
   94        0.858   1.696   0.000   2.554
   95        0.875   1.843   0.000   2.718
--------------------------------------------------
tot        109.286 188.180   4.627 302.093
 

 total amount of memory used by VASP MPI-rank0   844824. kBytes
=======================================================================

   base      :      30000. kBytes
   nonl-proj :     160197. kBytes
   fftplans  :      27360. kBytes
   grid      :      17735. kBytes
   one-center:         48. kBytes
   wavefun   :     609484. kBytes
 
  
  
 General timing and accounting informations for this job:
 ========================================================
  
                  Total CPU time used (sec):    12359.732
                            User time (sec):    12124.492
                          System time (sec):      235.240
                         Elapsed time (sec):    12407.047
  
                   Maximum memory used (kb):      955092.
                   Average memory used (kb):           0.
  
                          Minor page faults:       246020
                          Major page faults:            0
                 Voluntary context switches:          382
